/*--------------------------------*- C++ -*----------------------------------*\
  =========                 |
  \\      /  F ield         | OpenFOAM: The Open Source CFD Toolbox
   \\    /   O peration     | Website:  https://openfoam.org
    \\  /    A nd           | Version:  8
     \\/     M anipulation  |
\*---------------------------------------------------------------------------*/
FoamFile
{
    version     2.0;
    format      ascii;
    class       volScalarField;
    location    "0.005";
    object      epsilon;
}
// * * * * * * * * * * * * * * * * * * * * * * * * * * * * * * * * * * * * * //

dimensions      [0 2 -3 0 0 0 0];

internalField   nonuniform List<scalar> 
4000
(
0.0506942
0.0506942
0.0506942
0.0506942
0.0506942
0.0506942
0.0506942
0.0506942
0.0506942
0.0506942
0.0506942
0.0506942
0.0506942
0.0506942
0.0506942
0.0506942
0.0506942
0.0506942
0.0506942
0.0506942
0.0506942
0.0506942
0.0506942
0.0506942
0.0506942
0.0506942
0.0506942
0.0506942
0.0506942
0.0506942
0.0506942
0.0506942
0.0506942
0.0506942
0.0506942
0.0506942
0.0506942
0.0506942
0.0506942
0.0506942
0.0506942
0.0506942
0.0506942
0.0506942
0.0506942
0.0506942
0.0506942
0.0506942
0.0506942
0.0506942
0.0506942
0.0506942
0.0506942
0.0506942
0.0506942
0.0506942
0.0506942
0.0506942
0.0506942
0.0506942
0.0506942
0.0506942
0.0506942
0.0506942
0.0506942
0.0506942
0.0506942
0.0506942
0.0506942
0.0506942
0.0506942
0.0506942
0.0506942
0.0506942
0.0506942
0.0506942
0.0506942
0.0506942
0.0506942
0.0506942
0.0506942
0.0506942
0.0506942
0.0506942
0.0506942
0.0506942
0.0506942
0.0506942
0.0506942
0.0506942
0.0506942
0.0506942
0.0506942
0.0506942
0.0506942
0.0506942
0.0506942
0.0506942
0.0506942
0.0506942
0.0506942
0.0506942
0.0506942
0.0506942
0.0506942
0.0506942
0.0506942
0.0506942
0.0506942
0.0506942
0.0506942
0.0506942
0.0506942
0.0506942
0.0506942
0.0506942
0.0506942
0.0506942
0.0506942
0.0506942
0.0506942
0.0506942
0.0506942
0.0506942
0.0506942
0.0506942
0.0506942
0.0506942
0.0506942
0.0506942
0.0506942
0.0506942
0.0506942
0.0506942
0.0506942
0.0506942
0.0506942
0.0506942
0.0506942
0.0506942
0.0506942
0.0506942
0.0506942
0.0506942
0.0506942
0.0506942
0.0506942
0.0506942
0.0506942
0.0506942
0.0506942
0.0506942
0.0506942
0.0506942
0.0506942
0.0506942
0.0506942
0.0506942
0.0506942
0.0506942
0.0506942
0.0506942
0.0506942
0.0506942
0.0506942
0.0506942
0.0506942
0.0506942
0.0506942
0.0506942
0.0506942
0.0506942
0.0506942
0.0506942
0.0506942
0.0506942
0.0506942
0.0506942
0.0506942
0.0506942
0.0506942
0.0506942
0.0506942
0.0506942
0.0506942
0.0506942
0.0506942
0.0506942
0.0506942
0.0506942
0.0506942
0.0506942
0.0506942
0.0506942
0.0506942
0.0506942
0.0506942
0.0506942
0.0506942
0.0506942
0.0506942
0.0506942
0.0506942
0.0506942
0.0506942
0.0506942
0.0506942
0.0506942
0.0506942
0.0506942
0.0506942
0.0506942
0.0506942
0.0506942
0.0506942
0.0506942
0.0506942
0.0506942
0.0506942
0.0506942
0.543631
0.278461
0.147479
0.0812704
0.0490525
0.0323511
0.024255
0.0204654
0.0188648
0.0183504
0.0180969
0.0179015
0.0180713
0.0187332
0.0196842
0.0205527
0.0210439
0.0214537
0.0291232
0.0382815
0.558961
0.287841
0.16168
0.092286
0.0542757
0.0341622
0.0240359
0.019121
0.0168172
0.0155563
0.0147861
0.0145704
0.0147817
0.0151104
0.0155413
0.016091
0.0168224
0.0193259
0.0398564
0.0635094
0.558198
0.292747
0.166114
0.0949538
0.0556446
0.0350615
0.0243644
0.0188495
0.0163137
0.0150674
0.0143051
0.0139995
0.014135
0.0144408
0.0148293
0.0153737
0.0166474
0.0217833
0.0640908
0.131298
0.558496
0.29366
0.164195
0.0918552
0.0522642
0.0334774
0.0239212
0.0187065
0.0161628
0.0149649
0.0142254
0.0138875
0.0140283
0.014424
0.0149532
0.015737
0.017939
0.0274326
0.129641
0.359513
0.55554
0.281632
0.153971
0.0869386
0.0481123
0.0309631
0.022717
0.0181881
0.0157596
0.01459
0.0139456
0.0136886
0.0138877
0.0144627
0.0153324
0.0166947
0.0203252
0.0383017
0.180386
0.487055
0.54752
0.268354
0.143451
0.0820422
0.0489699
0.0325672
0.02453
0.0200864
0.017402
0.0160266
0.015253
0.0149106
0.0149974
0.015524
0.0166419
0.0187626
0.0241655
0.0444514
0.217088
0.596184
0.55351
0.275035
0.14936
0.0957749
0.0726687
0.0622415
0.0591674
0.0577254
0.0556654
0.0540285
0.0522235
0.0499345
0.0468189
0.0432675
0.040096
0.0389508
0.0444271
0.0657015
0.225441
0.693761
0.564774
0.318491
0.214526
0.178773
0.168439
0.16894
0.172927
0.176358
0.17431
0.171378
0.167553
0.161597
0.153009
0.140558
0.125285
0.10936
0.0978225
0.106236
0.20392
0.660067
0.0506942
0.0506942
0.0506942
0.0506942
0.0506942
0.0506942
0.0506942
0.0506942
0.0506942
0.0506942
0.0506942
0.0506942
0.0506942
0.0506942
0.0506942
0.0506942
0.0506942
0.0506942
0.0506942
0.0506942
0.0506942
0.0506942
0.0506942
0.0506942
0.0506942
0.0506942
0.0506942
0.0506942
0.0506942
0.0506942
0.0506942
0.0506942
0.0506942
0.0506942
0.0506942
0.0506942
0.0506942
0.0506942
0.0506942
0.0506942
0.565812
0.293792
0.160362
0.0900019
0.0529188
0.0336716
0.0240797
0.0195055
0.0174466
0.0166401
0.0162362
0.01594
0.0160227
0.0166481
0.0176009
0.0184131
0.0187473
0.0189858
0.0262762
0.0410129
0.579382
0.306678
0.176662
0.102021
0.059067
0.0363837
0.0243513
0.0181225
0.0149159
0.0131238
0.0121049
0.0117346
0.0118195
0.0121152
0.0125521
0.0130358
0.0136423
0.0157246
0.0377606
0.0955541
0.579123
0.311743
0.17983
0.103608
0.0600958
0.0365382
0.023769
0.0173428
0.0140508
0.0122684
0.0112632
0.0108652
0.0109304
0.0111994
0.0115436
0.0119794
0.013086
0.0181971
0.0724956
0.283295
0.578883
0.308712
0.174695
0.097188
0.0562539
0.0347008
0.0232054
0.0171634
0.0139164
0.012199
0.011246
0.01085
0.0109447
0.0113261
0.0118281
0.012543
0.0145426
0.0244803
0.153872
0.49174
0.575312
0.299748
0.166494
0.0897869
0.0509683
0.0312403
0.0214072
0.0162363
0.0132599
0.011691
0.0108865
0.010613
0.0108184
0.0114136
0.0122916
0.0135933
0.0168709
0.0342199
0.211075
0.584117
0.562602
0.298318
0.163738
0.0912805
0.0533049
0.0331653
0.0232523
0.0180041
0.0147643
0.0130146
0.0121669
0.0118287
0.0119086
0.0124792
0.0136136
0.0156263
0.0206377
0.0406558
0.232755
0.642447
0.544819
0.295934
0.173828
0.10982
0.0797109
0.064601
0.0580422
0.0551807
0.0521077
0.0495823
0.0476753
0.0453678
0.0422636
0.038805
0.0357427
0.034616
0.0397777
0.0601991
0.224743
0.693179
0.56088
0.3501
0.239564
0.190204
0.170437
0.163922
0.164182
0.165524
0.164112
0.160211
0.154883
0.147875
0.137869
0.124563
0.109213
0.0933866
0.0826981
0.0916078
0.189073
0.647031
0.0506942
0.0506942
0.0506942
0.0506942
0.0506942
0.0506942
0.0506942
0.0506942
0.0506942
0.0506942
0.0506942
0.0506942
0.0506942
0.0506942
0.0506942
0.0506942
0.0506942
0.0506942
0.0506942
0.0506942
0.0506942
0.0506942
0.0506942
0.0506942
0.0506942
0.0506942
0.0506942
0.0506942
0.0506942
0.0506942
0.0506942
0.0506942
0.0506942
0.0506942
0.0506942
0.0506942
0.0506942
0.0506942
0.0506942
0.0506942
0.565556
0.297238
0.163039
0.0918408
0.0542421
0.0345318
0.0247962
0.020151
0.0179975
0.0170778
0.0166001
0.0162692
0.0163184
0.0169182
0.0178696
0.0186904
0.0190161
0.0190997
0.0259218
0.0410497
0.578348
0.308516
0.178114
0.103247
0.0601437
0.0370337
0.0248013
0.0183587
0.0149625
0.01307
0.0120139
0.0116202
0.0116695
0.0119349
0.0123467
0.012804
0.0133938
0.0152944
0.0363881
0.099393
0.577063
0.312787
0.181563
0.105056
0.0602062
0.0359692
0.023324
0.0169312
0.0136266
0.0118182
0.0108113
0.0104275
0.0104929
0.0107513
0.0110619
0.011468
0.0125472
0.0172063
0.0697638
0.297981
0.578197
0.309013
0.175172
0.100471
0.0577107
0.0352287
0.0236254
0.0173529
0.0138964
0.0120514
0.011063
0.0106587
0.0107291
0.0110703
0.0115041
0.0121604
0.0140717
0.0233316
0.152118
0.5185
0.576494
0.296208
0.16574
0.093411
0.0525172
0.0319994
0.0220677
0.0165872
0.0133138
0.0115719
0.0107318
0.0104492
0.0106294
0.0111941
0.0120129
0.0132452
0.0163661
0.0316824
0.210665
0.595898
0.577375
0.284323
0.155722
0.0882829
0.0507123
0.031411
0.0223954
0.0173902
0.0140375
0.012301
0.011564
0.0112928
0.0113785
0.0119909
0.013146
0.0151632
0.0200904
0.0390378
0.231053
0.642489
0.579916
0.303451
0.17919
0.113779
0.0802936
0.0639579
0.0570759
0.0538635
0.0496714
0.047029
0.0456054
0.0435945
0.0405385
0.0374176
0.0345947
0.033782
0.0390428
0.0591201
0.223014
0.691671
0.590623
0.363756
0.248402
0.19671
0.174692
0.167094
0.167182
0.167341
0.1611
0.157292
0.154709
0.148915
0.138598
0.12525
0.109948
0.0941978
0.0832354
0.0917435
0.186475
0.647697
0.0506942
0.0506942
0.0506942
0.0506942
0.0506942
0.0506942
0.0506942
0.0506942
0.0506942
0.0506942
0.0506942
0.0506942
0.0506942
0.0506942
0.0506942
0.0506942
0.0506942
0.0506942
0.0506942
0.0506942
0.0506942
0.0506942
0.0506942
0.0506942
0.0506942
0.0506942
0.0506942
0.0506942
0.0506942
0.0506942
0.0506942
0.0506942
0.0506942
0.0506942
0.0506942
0.0506942
0.0506942
0.0506942
0.0506942
0.0506942
0.56716
0.298098
0.164003
0.0925554
0.0547095
0.0349976
0.0251858
0.0204866
0.0182593
0.0172755
0.01677
0.0164281
0.0164557
0.0170335
0.0179629
0.0187589
0.0191432
0.0193931
0.0259323
0.0394324
0.579006
0.307778
0.178333
0.103244
0.0602391
0.0373425
0.024983
0.0184169
0.0149569
0.0130494
0.0119977
0.0115952
0.0116223
0.0118758
0.0122788
0.0127272
0.0133715
0.0152651
0.0352056
0.0931916
0.577859
0.313501
0.182438
0.104059
0.0588722
0.0351664
0.0227936
0.0165084
0.0132739
0.0115329
0.0105816
0.0102212
0.0102802
0.0105256
0.0108014
0.0111855
0.0123333
0.0167888
0.0651754
0.27521
0.578503
0.311278
0.179821
0.101837
0.0578869
0.0355088
0.0237837
0.0174135
0.0138964
0.012038
0.011065
0.010663
0.0107107
0.0110177
0.011386
0.0119803
0.0139035
0.0229642
0.147585
0.520245
0.572872
0.303516
0.173349
0.0971143
0.0544516
0.0334554
0.0228904
0.0170286
0.0135269
0.0116929
0.0108367
0.0105377
0.0106785
0.0112017
0.0119373
0.0130561
0.016112
0.0309
0.209065
0.596605
0.56508
0.29083
0.158219
0.0885946
0.0512133
0.032156
0.022861
0.0176397
0.0141372
0.0123953
0.0117093
0.0114324
0.011464
0.0120399
0.0130907
0.0149552
0.0198218
0.0382244
0.229991
0.64158
0.564564
0.30688
0.179198
0.112311
0.0793825
0.0635958
0.0567326
0.0535279
0.0493399
0.0469726
0.0457766
0.0437313
0.0405699
0.0373957
0.0345694
0.0337784
0.0391217
0.0592667
0.221395
0.69151
0.587317
0.359021
0.243806
0.192714
0.171259
0.164403
0.16487
0.165785
0.161742
0.1582
0.15381
0.147616
0.13752
0.124334
0.109995
0.0951574
0.0844514
0.092882
0.185307
0.648378
0.0506942
0.0506942
0.0506942
0.0506942
0.0506942
0.0506942
0.0506942
0.0506942
0.0506942
0.0506942
0.0506942
0.0506942
0.0506942
0.0506942
0.0506942
0.0506942
0.0506942
0.0506942
0.0506942
0.0506942
0.0506942
0.0506942
0.0506942
0.0506942
0.0506942
0.0506942
0.0506942
0.0506942
0.0506942
0.0506942
0.0506942
0.0506942
0.0506942
0.0506942
0.0506942
0.0506942
0.0506942
0.0506942
0.0506942
0.0506942
0.566985
0.297854
0.164217
0.0931574
0.0553415
0.0354558
0.0255009
0.0207017
0.018404
0.0173853
0.0168726
0.0165222
0.0165282
0.0171033
0.0180535
0.0188547
0.0192257
0.0194126
0.0254572
0.0332819
0.577034
0.306556
0.177411
0.103447
0.0607596
0.0376437
0.0251311
0.0184797
0.0149838
0.0130584
0.0119907
0.0115621
0.0115606
0.0118039
0.0122014
0.0126246
0.0132546
0.0150207
0.0322672
0.062229
0.576765
0.314501
0.182728
0.103818
0.0588795
0.0350862
0.0226344
0.0163562
0.0131507
0.0114265
0.0104798
0.0101097
0.0101508
0.0103914
0.0106527
0.0109915
0.0120843
0.0160539
0.0553516
0.14289
0.580135
0.315697
0.180748
0.102089
0.0584487
0.0359469
0.0239973
0.0175331
0.013977
0.0121003
0.0111225
0.010708
0.0107312
0.0110245
0.011366
0.011895
0.0137356
0.0224974
0.143257
0.511004
0.575924
0.307769
0.175031
0.0981103
0.0555039
0.0342164
0.0233198
0.017271
0.0136553
0.0117693
0.0109042
0.0105907
0.0107001
0.0112212
0.0119595
0.0130262
0.0159672
0.0301619
0.207942
0.595493
0.567052
0.289602
0.157404
0.0881289
0.0512753
0.0321844
0.0228909
0.0174837
0.0138931
0.0121741
0.0115525
0.0112813
0.0112728
0.0118983
0.0130375
0.0149138
0.0197198
0.0376373
0.229419
0.641162
0.561311
0.297534
0.174761
0.109837
0.0788801
0.0637292
0.0570188
0.0529911
0.0483594
0.0461441
0.0454006
0.0434278
0.03997
0.0372721
0.0346539
0.0339655
0.0392764
0.0593656
0.220376
0.691577
0.588766
0.361955
0.246562
0.194632
0.173058
0.166202
0.166578
0.165478
0.158511
0.156462
0.153829
0.148451
0.137299
0.124483
0.110563
0.0960645
0.0853316
0.0937589
0.184535
0.648659
0.0506942
0.0506942
0.0506942
0.0506942
0.0506942
0.0506942
0.0506942
0.0506942
0.0506942
0.0506942
0.0506942
0.0506942
0.0506942
0.0506942
0.0506942
0.0506942
0.0506942
0.0506942
0.0506942
0.0506942
0.0506942
0.0506942
0.0506942
0.0506942
0.0506942
0.0506942
0.0506942
0.0506942
0.0506942
0.0506942
0.0506942
0.0506942
0.0506942
0.0506942
0.0506942
0.0506942
0.0506942
0.0506942
0.0506942
0.0506942
0.567703
0.297501
0.164318
0.093425
0.0555282
0.0355201
0.025527
0.0206877
0.0183637
0.0173382
0.0168243
0.0164529
0.0164159
0.0169698
0.017941
0.0187705
0.0191566
0.0193202
0.025213
0.0324973
0.576212
0.304787
0.177355
0.10379
0.0607524
0.0374144
0.0250334
0.0184591
0.01499
0.0130585
0.0119672
0.0115088
0.011475
0.0117052
0.012115
0.0125548
0.0132154
0.0149967
0.0318598
0.0591583
0.577285
0.313171
0.182769
0.104667
0.0594243
0.035364
0.0228438
0.0165598
0.0133335
0.0115647
0.0105763
0.0101724
0.0101808
0.010407
0.0106701
0.0110077
0.0121255
0.016137
0.0547813
0.130282
0.584364
0.315704
0.181245
0.103111
0.059035
0.0362181
0.0241408
0.0176557
0.0140867
0.0121866
0.0111984
0.0107779
0.0107819
0.0110595
0.0113905
0.0118966
0.0137208
0.0224579
0.14184
0.508362
0.583857
0.310991
0.176827
0.0999593
0.056484
0.0347367
0.023554
0.0174387
0.0138043
0.0118965
0.0110479
0.010747
0.0108271
0.0113155
0.012032
0.0130537
0.0159273
0.0296913
0.207267
0.594913
0.577371
0.296516
0.162622
0.0919376
0.0534264
0.0334006
0.0235026
0.0179653
0.0142384
0.0124615
0.0118563
0.0115857
0.0114924
0.0120516
0.0131436
0.0149612
0.0196922
0.0371272
0.228971
0.640959
0.570189
0.305583
0.181496
0.114724
0.0809113
0.0645474
0.0573952
0.0537592
0.0490041
0.0468061
0.045929
0.0442117
0.0404662
0.0375321
0.0348585
0.034201
0.0394972
0.0595097
0.219313
0.691649
0.590363
0.364616
0.249097
0.196433
0.173949
0.166573
0.166886
0.166794
0.159816
0.15765
0.154533
0.149478
0.137865
0.125019
0.111313
0.097002
0.086123
0.0943393
0.18376
0.648758
0.0506942
0.0506942
0.0506942
0.0506942
0.0506942
0.0506942
0.0506942
0.0506942
0.0506942
0.0506942
0.0506942
0.0506942
0.0506942
0.0506942
0.0506942
0.0506942
0.0506942
0.0506942
0.0506942
0.0506942
0.0506942
0.0506942
0.0506942
0.0506942
0.0506942
0.0506942
0.0506942
0.0506942
0.0506942
0.0506942
0.0506942
0.0506942
0.0506942
0.0506942
0.0506942
0.0506942
0.0506942
0.0506942
0.0506942
0.0506942
0.567141
0.297171
0.164001
0.0930262
0.0549717
0.0350192
0.0251285
0.0203525
0.0180731
0.0170722
0.0165613
0.0161689
0.0160825
0.0165963
0.0175717
0.0184302
0.018825
0.018907
0.0247139
0.0321566
0.57307
0.30322
0.176219
0.102229
0.059288
0.0363756
0.024388
0.0181373
0.0148121
0.0129238
0.0118344
0.0113659
0.0113091
0.0115123
0.0119123
0.0123498
0.0130054
0.0147733
0.0315107
0.0583245
0.575769
0.315418
0.183422
0.105375
0.0598176
0.0356881
0.02318
0.0168909
0.0136153
0.0117722
0.0107231
0.0102853
0.0102626
0.0104579
0.0107033
0.0110235
0.0121115
0.0160563
0.0542593
0.12795
0.580592
0.315106
0.181917
0.103125
0.0587834
0.0360472
0.0241401
0.0177152
0.0141316
0.012184
0.01117
0.0107532
0.0107582
0.0110289
0.0113629
0.0118728
0.0136735
0.0222155
0.139362
0.506285
0.575257
0.305188
0.173762
0.0969567
0.0541204
0.0331038
0.0227489
0.0169698
0.0133677
0.0114724
0.0106809
0.010448
0.0105624
0.0110748
0.0118536
0.0129498
0.015854
0.0290859
0.206302
0.594296
0.567872
0.28996
0.1577
0.0878719
0.0504222
0.0314031
0.0224041
0.0171578
0.0135685
0.011884
0.0113937
0.0112201
0.0111355
0.0116941
0.0128843
0.0148053
0.019606
0.036646
0.228422
0.640807
0.56429
0.302485
0.178497
0.111665
0.0792658
0.0635506
0.0568171
0.0528034
0.0477988
0.0455304
0.0452162
0.0437125
0.0398946
0.0371313
0.0346083
0.0340745
0.0394783
0.0595386
0.218411
0.691706
0.589362
0.363137
0.247677
0.194961
0.172506
0.165238
0.165767
0.165641
0.158251
0.156139
0.153359
0.148949
0.137436
0.124728
0.111226
0.0971698
0.0863855
0.0945743
0.183103
0.648796
0.0506942
0.0506942
0.0506942
0.0506942
0.0506942
0.0506942
0.0506942
0.0506942
0.0506942
0.0506942
0.0506942
0.0506942
0.0506942
0.0506942
0.0506942
0.0506942
0.0506942
0.0506942
0.0506942
0.0506942
0.0506942
0.0506942
0.0506942
0.0506942
0.0506942
0.0506942
0.0506942
0.0506942
0.0506942
0.0506942
0.0506942
0.0506942
0.0506942
0.0506942
0.0506942
0.0506942
0.0506942
0.0506942
0.0506942
0.0506942
0.567314
0.297427
0.16371
0.0924786
0.0544229
0.0345739
0.0247154
0.0199685
0.0177195
0.0167281
0.0162063
0.0158176
0.0157229
0.0162235
0.0171954
0.0180577
0.0184573
0.0185744
0.0244472
0.0320598
0.572881
0.303659
0.1755
0.101135
0.0584305
0.0358046
0.0240341
0.0179461
0.0147049
0.0128465
0.0117688
0.0113006
0.0112387
0.0114192
0.0117895
0.0121977
0.0128361
0.0146063
0.0313145
0.0579816
0.580615
0.322064
0.186496
0.1073
0.0610268
0.0364836
0.0237201
0.0172971
0.0139041
0.0119814
0.0108767
0.0104222
0.0103975
0.0105727
0.0107716
0.0110283
0.0120519
0.0159041
0.0536261
0.126757
0.586994
0.322964
0.185852
0.105553
0.0601746
0.036908
0.024603
0.0180162
0.0143457
0.0123273
0.0112781
0.0108744
0.010904
0.0111656
0.0114502
0.01189
0.0136059
0.0218763
0.136555
0.504724
0.581044
0.311801
0.177954
0.0991418
0.0551958
0.033726
0.0230891
0.0172005
0.0135315
0.0115528
0.0107406
0.0105464
0.0106952
0.0111867
0.0119164
0.0129619
0.0158015
0.0283817
0.205439
0.593956
0.572392
0.294717
0.160792
0.089419
0.0512069
0.0318927
0.0227669
0.0174719
0.0137464
0.0119635
0.0114664
0.0113657
0.0113063
0.0118059
0.0129214
0.0148075
0.0195714
0.0361942
0.227962
0.6408
0.567244
0.305695
0.180822
0.112815
0.0796467
0.0636183
0.0568233
0.053186
0.0480159
0.0455412
0.0450668
0.0438745
0.0403708
0.0374402
0.0347379
0.0341081
0.0394765
0.0595211
0.217758
0.691794
0.58943
0.363698
0.247984
0.194818
0.172001
0.164552
0.165142
0.165891
0.158342
0.155571
0.152589
0.148542
0.13811
0.125055
0.111392
0.0973301
0.0865535
0.0947031
0.182648
0.648833
0.0506942
0.0506942
0.0506942
0.0506942
0.0506942
0.0506942
0.0506942
0.0506942
0.0506942
0.0506942
0.0506942
0.0506942
0.0506942
0.0506942
0.0506942
0.0506942
0.0506942
0.0506942
0.0506942
0.0506942
0.0506942
0.0506942
0.0506942
0.0506942
0.0506942
0.0506942
0.0506942
0.0506942
0.0506942
0.0506942
0.0506942
0.0506942
0.0506942
0.0506942
0.0506942
0.0506942
0.0506942
0.0506942
0.0506942
0.0506942
0.566036
0.296016
0.16283
0.0918208
0.0539621
0.0342205
0.0244657
0.0197242
0.0174792
0.0164936
0.0159685
0.0155707
0.0154675
0.0159693
0.0169544
0.0178399
0.0182743
0.0184781
0.0244527
0.0320971
0.573569
0.304227
0.176142
0.101788
0.058916
0.0361165
0.0242303
0.0180334
0.014745
0.0128708
0.0117905
0.0113237
0.0112678
0.0114542
0.0118304
0.0122413
0.012867
0.0146201
0.031342
0.0580091
0.582353
0.322138
0.186956
0.107357
0.0609151
0.0363011
0.0235561
0.0171614
0.0138178
0.0118958
0.010776
0.0103262
0.0103335
0.0105502
0.0107806
0.0110456
0.0120546
0.0158661
0.0534227
0.126554
0.587924
0.320949
0.184169
0.103725
0.0587705
0.0358852
0.0240738
0.0177055
0.0141282
0.0121238
0.0110634
0.0106766
0.0107625
0.0110905
0.0114198
0.0118741
0.0135654
0.0217202
0.1353
0.504266
0.581904
0.309863
0.175319
0.0970013
0.0537003
0.0326681
0.0225174
0.0168708
0.0132645
0.0112928
0.0104817
0.0103336
0.0105596
0.0111145
0.0118788
0.0129398
0.0157537
0.0279504
0.205119
0.593937
0.573796
0.294027
0.159256
0.088068
0.0502131
0.0312002
0.0223691
0.0172399
0.0135762
0.011782
0.0112819
0.0112344
0.0112549
0.011788
0.0129028
0.0147955
0.0195573
0.0359361
0.227854
0.640885
0.568696
0.305823
0.180107
0.111958
0.0790125
0.0630585
0.0563576
0.052895
0.0477049
0.04507
0.0446489
0.0435668
0.0403679
0.0374977
0.0347952
0.034142
0.0395018
0.0595653
0.217467
0.691888
0.589674
0.363746
0.247622
0.194157
0.171133
0.163527
0.164097
0.165166
0.157683
0.154772
0.15168
0.147816
0.137945
0.124989
0.111392
0.0974049
0.086683
0.0948364
0.18245
0.648877
0.0506942
0.0506942
0.0506942
0.0506942
0.0506942
0.0506942
0.0506942
0.0506942
0.0506942
0.0506942
0.0506942
0.0506942
0.0506942
0.0506942
0.0506942
0.0506942
0.0506942
0.0506942
0.0506942
0.0506942
0.0506942
0.0506942
0.0506942
0.0506942
0.0506942
0.0506942
0.0506942
0.0506942
0.0506942
0.0506942
0.0506942
0.0506942
0.0506942
0.0506942
0.0506942
0.0506942
0.0506942
0.0506942
0.0506942
0.0506942
0.565058
0.296543
0.163243
0.0920884
0.0541845
0.034321
0.0245151
0.0197685
0.0175299
0.0165737
0.0160992
0.0157106
0.0155874
0.0160496
0.0169987
0.0178684
0.0183045
0.0184956
0.0244108
0.0320743
0.575278
0.307537
0.17932
0.104196
0.0605891
0.0371245
0.0248123
0.0183325
0.0149366
0.0130328
0.0119462
0.0114804
0.011413
0.0115812
0.0119415
0.012342
0.0129519
0.0146808
0.0313832
0.0582134
0.581286
0.321276
0.186684
0.107357
0.0607838
0.0360822
0.0233412
0.0170061
0.0137345
0.0118565
0.0107481
0.0102943
0.0103031
0.0105324
0.0107835
0.0110684
0.0120887
0.0159231
0.053725
0.127538
0.583981
0.316384
0.180888
0.101387
0.0570951
0.034707
0.0234047
0.0173309
0.0139081
0.0119721
0.0109247
0.0105371
0.0106405
0.0110095
0.0113858
0.0118757
0.0135952
0.0218311
0.136356
0.505012
0.577451
0.304994
0.171711
0.0943677
0.0518377
0.0314094
0.0218168
0.0164741
0.0130143
0.0110993
0.0102924
0.0101447
0.0104013
0.0110115
0.0118324
0.0129371
0.0157902
0.0280261
0.205359
0.594208
0.570518
0.290772
0.156782
0.0861183
0.048749
0.0301927
0.0217069
0.0168454
0.0133434
0.0115964
0.0110959
0.0110478
0.0110971
0.0116773
0.0128437
0.0147876
0.0195932
0.0359843
0.228106
0.640998
0.566853
0.304032
0.178544
0.110493
0.078046
0.062294
0.0557515
0.0523713
0.0473191
0.0446729
0.0444055
0.0433585
0.0401095
0.0373043
0.0347594
0.0341786
0.0395788
0.0596871
0.217507
0.691951
0.589543
0.363363
0.247173
0.193597
0.170411
0.162595
0.163087
0.164293
0.157116
0.154337
0.151281
0.147412
0.137413
0.124734
0.111342
0.0974985
0.0868316
0.0949799
0.182445
0.648902
0.0506942
0.0506942
0.0506942
0.0506942
0.0506942
0.0506942
0.0506942
0.0506942
0.0506942
0.0506942
0.0506942
0.0506942
0.0506942
0.0506942
0.0506942
0.0506942
0.0506942
0.0506942
0.0506942
0.0506942
0.0506942
0.0506942
0.0506942
0.0506942
0.0506942
0.0506942
0.0506942
0.0506942
0.0506942
0.0506942
0.0506942
0.0506942
0.0506942
0.0506942
0.0506942
0.0506942
0.0506942
0.0506942
0.0506942
0.0506942
0.566602
0.299259
0.164764
0.0929704
0.0548235
0.0346915
0.0247433
0.0199514
0.0176994
0.0167628
0.0163446
0.016021
0.0159135
0.0163276
0.0172045
0.0180177
0.0184251
0.0185481
0.0243665
0.0320582
0.57817
0.311059
0.181247
0.105313
0.0614421
0.0376418
0.0250974
0.0184978
0.0150548
0.0131567
0.0120963
0.011653
0.0115835
0.0117209
0.012038
0.0124091
0.0130131
0.0147531
0.0314531
0.0587142
0.582491
0.323272
0.18754
0.108214
0.0612834
0.0363137
0.0234498
0.0170813
0.0138135
0.0119771
0.0109077
0.0104565
0.0104411
0.0106323
0.0108483
0.0111179
0.0121542
0.0161035
0.0547036
0.129993
0.584539
0.318348
0.18305
0.102846
0.0578939
0.0351273
0.0236369
0.0174667
0.0140512
0.012148
0.0111103
0.0106987
0.0107606
0.0110938
0.0114483
0.0119293
0.0136741
0.0221703
0.139354
0.506654
0.578243
0.307551
0.174384
0.0960692
0.0527338
0.0318724
0.0220477
0.01664
0.0132429
0.011332
0.0104826
0.0102729
0.0104725
0.0110544
0.0118709
0.0129817
0.0158691
0.0285211
0.206199
0.594784
0.571699
0.293478
0.159193
0.0875159
0.0494155
0.0304842
0.0218737
0.0170236
0.0135416
0.0117696
0.0112148
0.011095
0.0110782
0.0116343
0.0128153
0.014797
0.0196525
0.0362742
0.228362
0.641089
0.568121
0.306586
0.180755
0.111675
0.0785951
0.0624107
0.0557246
0.0525838
0.0477689
0.0451634
0.044823
0.0436213
0.0400432
0.0371365
0.0347011
0.0341706
0.0396195
0.0597846
0.217612
0.691925
0.589688
0.364285
0.248317
0.194497
0.170865
0.162636
0.162984
0.16444
0.157976
0.155319
0.152199
0.148129
0.137319
0.12482
0.111434
0.0975423
0.0868486
0.0950125
0.182521
0.648882
0.0506942
0.0506942
0.0506942
0.0506942
0.0506942
0.0506942
0.0506942
0.0506942
0.0506942
0.0506942
0.0506942
0.0506942
0.0506942
0.0506942
0.0506942
0.0506942
0.0506942
0.0506942
0.0506942
0.0506942
0.0506942
0.0506942
0.0506942
0.0506942
0.0506942
0.0506942
0.0506942
0.0506942
0.0506942
0.0506942
0.0506942
0.0506942
0.0506942
0.0506942
0.0506942
0.0506942
0.0506942
0.0506942
0.0506942
0.0506942
0.567891
0.300263
0.165264
0.0932219
0.0549488
0.0346928
0.0246885
0.019919
0.0176896
0.0167683
0.0163886
0.0161335
0.0160703
0.0164705
0.0173072
0.0180945
0.0185097
0.0186163
0.0243761
0.032068
0.578007
0.309902
0.180836
0.105129
0.0611042
0.0373039
0.0248079
0.0183262
0.0149481
0.0130809
0.0120565
0.0116634
0.0116339
0.0117801
0.0120823
0.012444
0.0130665
0.014854
0.0315824
0.0591585
0.582227
0.322782
0.187134
0.107921
0.0610342
0.036068
0.0232345
0.0169247
0.013731
0.0119614
0.0109603
0.010555
0.0105555
0.0107376
0.0109389
0.0112007
0.012266
0.0163668
0.0558005
0.131773
0.585674
0.320372
0.184133
0.10378
0.0584314
0.0353808
0.0237204
0.0175034
0.0141163
0.0122623
0.0112579
0.0108499
0.0108904
0.0111974
0.0115339
0.0120068
0.0137691
0.0225117
0.141936
0.507746
0.580674
0.311182
0.176815
0.0976872
0.0535798
0.0322828
0.0222386
0.0167681
0.0134312
0.0115455
0.0106767
0.0104167
0.0105597
0.0111053
0.0119106
0.0130239
0.0159371
0.0291004
0.206905
0.594983
0.574437
0.296842
0.161505
0.0887668
0.0499612
0.0306747
0.0219552
0.0171391
0.0137104
0.0119376
0.0113418
0.0111545
0.0110739
0.0115998
0.0127847
0.0147928
0.0196808
0.0365893
0.228118
0.640933
0.570281
0.309065
0.182376
0.11243
0.0790326
0.062447
0.0557296
0.052894
0.0483826
0.0458348
0.0453549
0.043879
0.0399748
0.0369578
0.0345678
0.0340866
0.0395841
0.0597515
0.21763
0.691764
0.590277
0.365831
0.249909
0.195773
0.171732
0.16317
0.163503
0.165383
0.159641
0.157141
0.153937
0.149494
0.13731
0.124851
0.111424
0.0975151
0.0868165
0.0949874
0.182836
0.648852
0.0506942
0.0506942
0.0506942
0.0506942
0.0506942
0.0506942
0.0506942
0.0506942
0.0506942
0.0506942
0.0506942
0.0506942
0.0506942
0.0506942
0.0506942
0.0506942
0.0506942
0.0506942
0.0506942
0.0506942
0.0506942
0.0506942
0.0506942
0.0506942
0.0506942
0.0506942
0.0506942
0.0506942
0.0506942
0.0506942
0.0506942
0.0506942
0.0506942
0.0506942
0.0506942
0.0506942
0.0506942
0.0506942
0.0506942
0.0506942
0.567884
0.299319
0.1647
0.0928727
0.0545991
0.0343806
0.0243669
0.0196907
0.0175351
0.0166441
0.0162743
0.0160468
0.0160117
0.0163893
0.0172396
0.0180555
0.0185317
0.0187183
0.0244994
0.0320402
0.576216
0.307417
0.179411
0.104284
0.0603742
0.0366923
0.0243049
0.0180055
0.0147364
0.0129206
0.0119172
0.0115506
0.0115615
0.0117394
0.0120588
0.0124386
0.0130978
0.0149365
0.0315899
0.0586052
0.581037
0.321624
0.186259
0.107381
0.0605888
0.0356825
0.0229039
0.0166632
0.013553
0.0118314
0.0108503
0.0104702
0.0105062
0.0107243
0.0109538
0.0112375
0.0123321
0.0164396
0.0553814
0.129104
0.585871
0.321187
0.184393
0.104026
0.0584858
0.0353026
0.0236043
0.017393
0.0140433
0.0122251
0.0112394
0.0108378
0.0108815
0.0112
0.011556
0.012046
0.0138236
0.0225205
0.141135
0.507445
0.581721
0.312653
0.177616
0.098116
0.0537348
0.0322965
0.0222039
0.016743
0.0134686
0.0116303
0.0107725
0.010499
0.0106214
0.011154
0.0119553
0.0130616
0.0159624
0.0294355
0.205856
0.594357
0.575379
0.297444
0.161592
0.0887213
0.0498972
0.030615
0.0219193
0.0171826
0.0138345
0.0120757
0.0114604
0.0112512
0.011161
0.0116911
0.01288
0.0148505
0.019689
0.0368197
0.227258
0.640667
0.570487
0.308608
0.181762
0.112061
0.0789031
0.0624634
0.0557651
0.0532945
0.0490847
0.0465321
0.0458159
0.044161
0.0401544
0.0371609
0.0346354
0.0341113
0.0395691
0.0596519
0.218112
0.691636
0.590766
0.366731
0.25084
0.196675
0.172586
0.164072
0.164675
0.167138
0.161874
0.159385
0.155863
0.150914
0.137977
0.125377
0.111864
0.0978156
0.0869419
0.0950178
0.18369
0.648853
0.0506942
0.0506942
0.0506942
0.0506942
0.0506942
0.0506942
0.0506942
0.0506942
0.0506942
0.0506942
0.0506942
0.0506942
0.0506942
0.0506942
0.0506942
0.0506942
0.0506942
0.0506942
0.0506942
0.0506942
0.0506942
0.0506942
0.0506942
0.0506942
0.0506942
0.0506942
0.0506942
0.0506942
0.0506942
0.0506942
0.0506942
0.0506942
0.0506942
0.0506942
0.0506942
0.0506942
0.0506942
0.0506942
0.0506942
0.0506942
0.567059
0.297874
0.163952
0.0924295
0.0541729
0.0340864
0.0241176
0.0195116
0.0174301
0.01656
0.0161602
0.0159109
0.0158696
0.0162355
0.0170878
0.0179356
0.0184857
0.0188686
0.0248088
0.0321448
0.575446
0.306994
0.17901
0.103922
0.0600987
0.0364268
0.0240439
0.0178121
0.0145955
0.0127939
0.0117585
0.0113503
0.0113512
0.0115486
0.0118917
0.0122957
0.0129969
0.0148836
0.0313397
0.0572001
0.581167
0.322559
0.186491
0.107579
0.060544
0.0354998
0.0226667
0.0164177
0.0133231
0.0116061
0.0105948
0.0101852
0.0102187
0.0104698
0.0107395
0.0110588
0.0121606
0.0160444
0.0527978
0.122133
0.586568
0.322574
0.185001
0.104407
0.0585803
0.0352592
0.0234766
0.0172603
0.0139222
0.0121059
0.0111068
0.010687
0.0107206
0.0110491
0.0114283
0.0119375
0.0137117
0.0220535
0.137779
0.507087
0.582181
0.313613
0.178088
0.098653
0.0541925
0.0326746
0.0223849
0.0168558
0.0135854
0.011763
0.0109085
0.0106374
0.0107542
0.0112655
0.0120288
0.0130825
0.0159131
0.0296127
0.20432
0.594049
0.575455
0.297802
0.162302
0.0896331
0.0507723
0.0313656
0.0223993
0.0175199
0.0141635
0.012329
0.0116686
0.0114605
0.0114176
0.0119701
0.0131002
0.0149842
0.0197188
0.0372632
0.227527
0.641028
0.569993
0.308375
0.182256
0.113012
0.0795443
0.0631859
0.0564223
0.0540086
0.0498454
0.0470273
0.0460796
0.0442924
0.0405039
0.0376093
0.0348668
0.034223
0.039607
0.0596415
0.219567
0.69173
0.590928
0.367267
0.251842
0.198031
0.174166
0.165975
0.16705
0.169916
0.163327
0.160468
0.156948
0.151769
0.139192
0.126411
0.11263
0.0981746
0.0869866
0.0949578
0.18491
0.648841
0.0506942
0.0506942
0.0506942
0.0506942
0.0506942
0.0506942
0.0506942
0.0506942
0.0506942
0.0506942
0.0506942
0.0506942
0.0506942
0.0506942
0.0506942
0.0506942
0.0506942
0.0506942
0.0506942
0.0506942
0.0506942
0.0506942
0.0506942
0.0506942
0.0506942
0.0506942
0.0506942
0.0506942
0.0506942
0.0506942
0.0506942
0.0506942
0.0506942
0.0506942
0.0506942
0.0506942
0.0506942
0.0506942
0.0506942
0.0506942
0.566284
0.29726
0.163356
0.09189
0.0536876
0.0338246
0.0240039
0.0194475