/*--------------------------------*- C++ -*----------------------------------*\
  =========                 |
  \\      /  F ield         | OpenFOAM: The Open Source CFD Toolbox
   \\    /   O peration     | Website:  https://openfoam.org
    \\  /    A nd           | Version:  8
     \\/     M anipulation  |
\*---------------------------------------------------------------------------*/
FoamFile
{
    version     2.0;
    format      ascii;
    class       volScalarField;
    location    "0.005";
    object      k;
}
// * * * * * * * * * * * * * * * * * * * * * * * * * * * * * * * * * * * * * //

dimensions      [0 2 -2 0 0 0 0];

internalField   nonuniform List<scalar> 
4000
(
0.597547
0.342664
0.222141
0.165117
0.133356
0.115713
0.105089
0.100703
0.0982699
0.0953834
0.0947246
0.0958454
0.0954515
0.092803
0.0901665
0.0888719
0.0884171
0.0874479
0.0876629
0.101605
0.56918
0.323851
0.214192
0.157762
0.126426
0.110765
0.103329
0.0992193
0.097107
0.0974058
0.0984042
0.0976114
0.0950717
0.0927261
0.0917088
0.0914666
0.0905807
0.0886804
0.0944433
0.152002
0.566937
0.320877
0.210982
0.154694
0.123817
0.108182
0.0998359
0.0963336
0.0953745
0.0949567
0.0938601
0.0924833
0.091655
0.0911235
0.0905068
0.0895242
0.087874
0.0877903
0.118102
0.389416
0.565548
0.319867
0.211175
0.155254
0.124226
0.108264
0.100273
0.096682
0.094804
0.0944017
0.0939703
0.0931716
0.0928929
0.0928089
0.0922106
0.0908141
0.0890038
0.092474
0.179403
0.5279
0.563491
0.317052
0.209224
0.153664
0.122567
0.106358
0.099131
0.09636
0.0943054
0.0941908
0.0942605
0.0936506
0.0934922
0.0936858
0.0933904
0.0922158
0.0910286
0.100079
0.249042
0.59886
0.563621
0.313855
0.204144
0.14996
0.121112
0.105667
0.099292
0.0974982
0.0953451
0.0949802
0.09497
0.094452
0.0945209
0.0950931
0.0952897
0.0947058
0.094453
0.11138
0.281063
0.638028
0.558029
0.30619
0.197776
0.144397
0.119793
0.10614
0.0999288
0.0979478
0.0953169
0.0942321
0.0939442
0.093797
0.0943939
0.0955085
0.0965381
0.0972963
0.0986641
0.112778
0.293376
0.663734
0.558299
0.314454
0.206408
0.149254
0.124332
0.112922
0.107298
0.105022
0.102464
0.10106
0.100607
0.100594
0.101029
0.101826
0.103232
0.106031
0.110666
0.122331
0.270134
0.682155
0.579195
0.329142
0.225513
0.175009
0.149692
0.138133
0.131147
0.126114
0.121873
0.119245
0.118131
0.117697
0.117245
0.116725
0.117161
0.118883
0.12509
0.139721
0.190907
0.678601
0.59062
0.333896
0.207533
0.158525
0.137476
0.128426
0.122831
0.119353
0.116979
0.115472
0.114894
0.114744
0.114382
0.114268
0.115439
0.117207
0.118976
0.124782
0.149374
0.337078
0.583384
0.330063
0.211906
0.155195
0.125075
0.109641
0.102439
0.0988486
0.0964572
0.0955129
0.0964374
0.0969456
0.095142
0.0922684
0.0905757
0.0902731
0.0897127
0.0878696
0.0903237
0.101953
0.364711
0.189574
0.12988
0.108604
0.101456
0.0983276
0.0974835
0.0984228
0.0996761
0.101088
0.102052
0.101409
0.0994708
0.0977622
0.0975769
0.0982799
0.0983608
0.100625
0.144337
0.170193
0.35643
0.178894
0.123128
0.103132
0.0960875
0.0939754
0.0942156
0.0961976
0.0989827
0.100465
0.100547
0.101086
0.102317
0.103257
0.104071
0.104984
0.106818
0.114928
0.201784
0.260021
0.355335
0.179514
0.123308
0.102957
0.0957033
0.0939236
0.0940601
0.0948009
0.0969665
0.0991376
0.0998018
0.100635
0.102662
0.104865
0.106666
0.10861
0.114073
0.130807
0.267427
0.338219
0.355919
0.180051
0.123341
0.102694
0.0946614
0.0937422
0.0950991
0.0957369
0.097218
0.0993985
0.100208
0.100999
0.103406
0.106796
0.110251
0.114479
0.125454
0.150042
0.289262
0.384206
0.357842
0.179257
0.122893
0.103883
0.0950015
0.0941921
0.0964031
0.0972344
0.097675
0.0990244
0.0997669
0.100872
0.10388
0.108706
0.114883
0.123562
0.143414
0.182553
0.283767
0.43432
0.360452
0.18114
0.129604
0.115087
0.108525
0.107515
0.109408
0.110039
0.109124
0.10898
0.108942
0.109571
0.111978
0.116931
0.125399
0.139938
0.173222
0.23718
0.307756
0.605841
0.366759
0.237277
0.241316
0.258248
0.274357
0.289271
0.303761
0.312521
0.313327
0.311191
0.305724
0.297238
0.285799
0.27298
0.262689
0.263559
0.303719
0.42039
0.519271
0.977029
0.436433
0.549219
0.602586
0.660264
0.703925
0.736866
0.75875
0.769234
0.76589
0.759645
0.750829
0.7373
0.716604
0.684338
0.642528
0.597636
0.574016
0.657075
1.1641
0.885539
0.568056
0.356424
0.268356
0.228912
0.20451
0.19211
0.182699
0.177439
0.175015
0.174048
0.174054
0.173943
0.174839
0.178997
0.183703
0.188233
0.199716
0.236697
0.395828
0.479858
0.585504
0.33378
0.214695
0.156556
0.125855
0.110188
0.10196
0.0979121
0.0954904
0.0942328
0.0949565
0.0956634
0.094191
0.0914376
0.0896586
0.0892091
0.0885335
0.0868144
0.0882727
0.0981101
0.356261
0.180003
0.122218
0.102663
0.0960969
0.0943102
0.0947288
0.0966667
0.098418
0.100162
0.101596
0.101358
0.0995724
0.0979449
0.0979035
0.0985893
0.0984402
0.100833
0.144892
0.162748
0.347356
0.169597
0.114908
0.0961527
0.0904386
0.0903159
0.0920218
0.0955319
0.0989754
0.100639
0.10126
0.102368
0.103782
0.104749
0.105734
0.106868
0.108905
0.117593
0.203255
0.222882
0.346442
0.170324
0.114966
0.0958638
0.0902396
0.0897848
0.0905786
0.0926981
0.0954574
0.0974896
0.0984997
0.0999695
0.102369
0.104757
0.106781
0.108974
0.114668
0.131998
0.264355
0.318473
0.347192
0.170365
0.114497
0.0950197
0.0899893
0.090156
0.0917399
0.0938935
0.0959943
0.0978909
0.0989689
0.100394
0.103161
0.106686
0.110277
0.114757
0.125577
0.148696
0.268034
0.325244
0.348795
0.170091
0.115124
0.0954978
0.0904422
0.0903885
0.0924458
0.0946347
0.0956278
0.0967493
0.097859
0.0995656
0.102843
0.107769
0.113976
0.122521
0.141103
0.176162
0.262879
0.393129
0.351178
0.173896
0.122343
0.105943
0.103026
0.10313
0.105385
0.107329
0.106937
0.106692
0.107087
0.108093
0.110449
0.115293
0.123347
0.136817
0.167673
0.226675
0.282187
0.560769
0.356855
0.225179
0.229506
0.244034
0.263449
0.280942
0.296488
0.307773
0.309048
0.30606
0.30141
0.293109
0.280736
0.266644
0.254447
0.253143
0.289663
0.398442
0.465967
0.892225
0.422125
0.503698
0.543358
0.595462
0.641981
0.677334
0.702828
0.715867
0.716119
0.709584
0.699783
0.684915
0.661147
0.626622
0.582064
0.5314
0.504301
0.582458
1.01819
0.757734
0.566569
0.351321
0.265937
0.223643
0.198706
0.186253
0.177672
0.172019
0.169413
0.168365
0.16767
0.16714
0.168354
0.171482
0.17407
0.177437
0.187055
0.221733
0.366209
0.440206
0.585615
0.335519
0.216616
0.157806
0.126675
0.110461
0.101669
0.0973249
0.0950037
0.0940136
0.0948289
0.095407
0.0937423
0.0908908
0.0891182
0.0885369
0.0873394
0.0850671
0.0861882
0.0958579
0.355632
0.179851
0.121975
0.102169
0.095695
0.093997
0.0950052
0.0974512
0.0994035
0.10118
0.10257
0.102233
0.10029
0.0985929
0.0986183
0.0992487
0.0986161
0.0999517
0.143093
0.15853
0.346825
0.1692
0.114297
0.0954325
0.0898584
0.0897718
0.092046
0.0959129
0.0993151
0.100958
0.101691
0.102851
0.104126
0.104942
0.10583
0.106858
0.108776
0.116734
0.197698
0.20949
0.346031
0.169865
0.114209
0.0950446
0.0889952
0.0880857
0.0891893
0.0915862
0.0941375
0.0959808
0.097114
0.0987487
0.101186
0.103551
0.105467
0.107634
0.113371
0.129135
0.252266
0.300877
0.34685
0.169588
0.113489
0.0948766
0.0893044
0.0892063
0.0914436
0.0940434
0.0959111
0.0976141
0.0988432
0.100447
0.103192
0.106532
0.109763
0.113997
0.124459
0.144848
0.254071
0.30859
0.348439
0.168549
0.114044
0.0956973
0.0896473
0.0893516
0.0922703
0.0948848
0.095423
0.0962892
0.0976266
0.0995741
0.102849
0.107654
0.113522
0.121698
0.139573
0.171124
0.249855
0.378567
0.350405
0.168669
0.119009
0.103771
0.0993674
0.0994662
0.102812
0.105073
0.104065
0.103747
0.104668
0.106032
0.108414
0.113446
0.121551
0.135014
0.165384
0.221149
0.267623
0.539353
0.354969
0.21764
0.221851
0.237667
0.254164
0.271323
0.288356
0.300021
0.298718
0.295766
0.293029
0.28577
0.273448
0.260357
0.248925
0.249091
0.285875
0.391747
0.452774
0.87193
0.418437
0.493585
0.532118
0.587378
0.633968
0.671604
0.700105
0.713075
0.707822
0.704184
0.699879
0.686119
0.660907
0.626342
0.582522
0.533329
0.505741
0.581713
1.02289
0.753059
0.570346
0.351605
0.263026
0.216769
0.191451
0.178711
0.168312
0.161261
0.158271
0.157673
0.157226
0.15666
0.158947
0.163487
0.167214
0.17378
0.185413
0.222273
0.374024
0.443796
0.587069
0.336566
0.217666
0.158682
0.127209
0.110581
0.101463
0.0971135
0.0949804
0.0940997
0.0948362
0.0952462
0.0934447
0.0905785
0.0889241
0.0884683
0.087207
0.0844999
0.0849206
0.0945444
0.35561
0.179675
0.121746
0.101867
0.0954269
0.0939993
0.0953272
0.0978874
0.0998523
0.101585
0.1029
0.102449
0.100356
0.0985845
0.0985864
0.0990921
0.098438
0.0997344
0.142687
0.159041
0.346777
0.168892
0.114267
0.0951973
0.0895805
0.0897272
0.0921406
0.0958999
0.0992058
0.100889
0.101693
0.102796
0.103918
0.104663
0.105522
0.106501
0.108695
0.116889
0.196879
0.211348
0.345904
0.1696
0.11442
0.0944757
0.0879926
0.0872276
0.088485
0.0907978
0.0932018
0.0950045
0.0961851
0.0977964
0.100103
0.102353
0.104068
0.106142
0.112419
0.128512
0.249829
0.302022
0.3466
0.16952
0.113903
0.0944924
0.0886369
0.0889843
0.0916021
0.094169
0.095872
0.0975808
0.0989617
0.100607
0.103212
0.106338
0.109161
0.113034
0.123674
0.144068
0.251844
0.304869
0.348335
0.169746
0.114803
0.0955441
0.0893815
0.0897043
0.0930938
0.0955354
0.0957018
0.0965145
0.0980624
0.100077
0.103185
0.107765
0.11312
0.120598
0.138191
0.169732
0.247496
0.374699
0.350806
0.171073
0.119438
0.102994
0.0988758
0.0998457
0.103599
0.105618
0.104258
0.104091
0.105414
0.106829
0.108941
0.113771
0.121225
0.133727
0.163807
0.219574
0.264702
0.533371
0.355388
0.220804
0.222212
0.235159
0.252021
0.270624
0.287912
0.299196
0.297401
0.295221
0.293486
0.286277
0.273657
0.260385
0.248756
0.248836
0.286016
0.392044
0.45224
0.867696
0.418612
0.495149
0.533278
0.585833
0.632051
0.670625
0.699052
0.711886
0.708596
0.704403
0.697501
0.684038
0.659682
0.625557
0.584155
0.537432
0.510652
0.586624
1.03679
0.754614
0.569884
0.351969
0.263698
0.219342
0.19464
0.181641
0.171899
0.166028
0.16402
0.163174
0.161845
0.161409
0.164026
0.166794
0.16882
0.175271
0.187239
0.225211
0.381596
0.44737
0.586486
0.33686
0.218256
0.159146
0.127184
0.110122
0.10088
0.0966212
0.0945706
0.0936405
0.0942443
0.0945346
0.0926474
0.0897842
0.0881234
0.0875227
0.08603
0.0833007
0.0838826
0.0939397
0.355689
0.179619
0.121651
0.101815
0.0954371
0.0940561
0.0953625
0.0979063
0.0998746
0.101598
0.102892
0.102378
0.100181
0.0984038
0.0984858
0.0988924
0.0979017
0.098951
0.142164
0.161328
0.346921
0.168973
0.114186
0.0951701
0.0896143
0.0896501
0.0918419
0.0955256
0.0989144
0.100697
0.101517
0.102514
0.103486
0.104192
0.105033
0.105833
0.107904
0.11639
0.197401
0.215696
0.345968
0.169765
0.113898
0.0938173
0.0874754
0.0867129
0.0878916
0.0901906
0.0926366
0.0944659
0.0956303
0.0971488
0.0993239
0.101543
0.103177
0.104992
0.111135
0.127593
0.250376
0.243225
0.346438
0.169693
0.11324
0.0938395
0.0883937
0.0889648
0.0916667
0.0943012
0.0960597
0.0978186
0.0992657
0.100876
0.103342
0.106391
0.109049
0.112519
0.12275
0.143135
0.253593
0.304671
0.348088
0.169746
0.114148
0.0949585
0.0892578
0.089828
0.0933018
0.0956881
0.0957384
0.0965644
0.0982663
0.100303
0.103268
0.10787
0.113257
0.120409
0.137409
0.168684
0.247847
0.373082
0.350817
0.170576
0.118716
0.102237
0.0984524
0.0994466
0.102992
0.104583
0.102968
0.102918
0.104559
0.105978
0.107848
0.112968
0.12093
0.133475
0.163225
0.218702
0.264498
0.531114
0.355671
0.219968
0.221679
0.234389
0.252419
0.271435
0.288584
0.297773
0.294925
0.293287
0.293004
0.285862
0.272074
0.260375
0.249538
0.249982
0.286827
0.392486
0.453342
0.866852
0.418375
0.495144
0.532651
0.585353
0.63272
0.671906
0.700075
0.710122
0.703693
0.703394
0.699306
0.686284
0.659265
0.62621
0.586598
0.54135
0.514444
0.590799
1.04698
0.75556
0.570239
0.353461
0.265887
0.221015
0.195419
0.181696
0.171563
0.165114
0.163048
0.16257
0.160984
0.160315
0.164024
0.167038
0.169453
0.176426
0.188342
0.226991
0.386139
0.449207
0.587476
0.336912
0.218168
0.159037
0.126938
0.109899
0.100782
0.0966246
0.0945782
0.0935693
0.0941075
0.0943906
0.0925144
0.0896658
0.0880604
0.0875609
0.0861054
0.0831946
0.0835387
0.0936002
0.35577
0.179431
0.121648
0.101895
0.0954363
0.0939297
0.0951552
0.0977088
0.0997299
0.10151
0.102855
0.102327
0.10003
0.098224
0.0984353
0.0989582
0.0979271
0.0987285
0.141624
0.161466
0.347044
0.168903
0.114437
0.0953686
0.0895279
0.089284
0.0913176
0.0950934
0.0986414
0.100491
0.101278
0.102184
0.103031
0.10373
0.10471
0.105638
0.107863
0.116501
0.197439
0.218769
0.346
0.1696
0.114135
0.0941529
0.0876422
0.0867181
0.0879069
0.0903886
0.0929842
0.0948247
0.0959478
0.0973865
0.0994286
0.101603
0.103281
0.105105
0.111391
0.128252
0.252497
0.24715
0.346308
0.169074
0.113031
0.0939711
0.0885415
0.0890755
0.091903
0.0947596
0.0965915
0.0982837
0.0997068
0.101294
0.103639
0.106593
0.109192
0.11252
0.122663
0.143268
0.254951
0.305059
0.347733
0.168874
0.113857
0.0952517
0.0897208
0.0904112
0.094176
0.0967785
0.0967759
0.0975252
0.0993049
0.101368
0.104097
0.108463
0.113706
0.120571
0.137237
0.168484
0.248308
0.372139
0.350313
0.169809
0.118558
0.102818
0.0992736
0.100458
0.104292
0.106109
0.104352
0.104298
0.106194
0.107691
0.109102
0.113843
0.121552
0.133744
0.163098
0.218542
0.264533
0.52992
0.355229
0.219452
0.221738
0.235382
0.252403
0.271157
0.288644
0.299392
0.296419
0.294958
0.294571
0.288508
0.273831
0.261293
0.250436
0.251192
0.287979
0.393271
0.454026
0.866761
0.418204
0.494978
0.53199
0.584663
0.631664
0.670882
0.699579
0.711016
0.704215
0.70379
0.699583
0.687763
0.659899
0.626887
0.588568
0.544673
0.517539
0.593342
1.05218
0.755967
0.570676
0.354348
0.266875
0.221683
0.195905
0.182093
0.17199
0.165976
0.164345
0.163655
0.161539
0.160909
0.165003
0.167703
0.170164
0.177637
0.189707
0.228478
0.388682
0.450105
0.586855
0.336044
0.217502
0.158573
0.12686
0.110169
0.101284
0.0972029
0.0951588
0.0941478
0.0947334
0.0951002
0.0932836
0.0904188
0.0888863
0.0885376
0.0870842
0.0838737
0.0839702
0.0940409
0.355822
0.179489
0.121728
0.101883
0.0953313
0.0937295
0.0948533
0.0974187
0.099509
0.101396
0.102849
0.10236
0.0999639
0.0980465
0.0983301
0.0990235
0.0979924
0.0985165
0.141143
0.161289
0.347172
0.169215
0.114725
0.0952516
0.0890927
0.0886787
0.0906839
0.0945049
0.0981103
0.0999337
0.100668
0.101554
0.102337
0.102963
0.103984
0.104985
0.107223
0.115836
0.196647
0.218939
0.345972
0.170151
0.11477
0.0944943
0.0877806
0.0868559
0.0882074
0.0909126
0.0936229
0.0953993
0.096448
0.0978712
0.0998387
0.101894
0.103514
0.105271
0.111409
0.12811
0.252697
0.248299
0.346525
0.169539
0.113373
0.0938657
0.088152
0.088631
0.0915877
0.0946344
0.0964331
0.0979301
0.0992944
0.100993
0.103404
0.106352
0.109
0.112376
0.122432
0.142846
0.255504
0.304573
0.348312
0.169348
0.114059
0.0947296
0.0886532
0.0890919
0.0927469
0.0952864
0.0949943
0.0954513
0.0972625
0.099602
0.102477
0.106965
0.112596
0.119937
0.136914
0.168199
0.248494
0.371249
0.350892
0.170428
0.118818
0.102276
0.0981111
0.099028
0.10283
0.104383
0.102213
0.101918
0.10402
0.105818
0.107123
0.11178
0.12001
0.13282
0.162675
0.218551
0.26451
0.529247
0.35556
0.220605
0.222636
0.234884
0.251637
0.270192
0.287934
0.297381
0.293204
0.291172
0.292539
0.287227
0.272134
0.259838
0.249321
0.250578
0.287897
0.393539
0.454268
0.866855
0.41841
0.495534
0.532563
0.584132
0.630093
0.669163
0.698323
0.709624
0.701795
0.701416
0.698142
0.687758
0.659646
0.626235
0.588236
0.545257
0.518571
0.594416
1.0547
0.756146
0.570473
0.354488
0.267355
0.222482
0.197092
0.183531
0.173616
0.16806
0.166827
0.165988
0.163372
0.162646
0.166875
0.169229
0.171352
0.178718
0.19074
0.229451
0.390076
0.450561
0.587004
0.335427
0.217027
0.158507
0.127353
0.111022
0.102332
0.0982968
0.0962874
0.0953567
0.0960692
0.0965722
0.0948282
0.0919521
0.0904551
0.0902674
0.0890022
0.085528
0.085181
0.0949329
0.355899
0.179571
0.121754
0.101925
0.095395
0.0937623
0.0947893
0.0973584
0.0995247
0.101535
0.103126
0.102766
0.100407
0.0984365
0.0987202
0.0995344
0.0986232
0.0990412
0.141631
0.161786
0.347222
0.169346
0.114647
0.0950984
0.0889525
0.0885627
0.0905929
0.0944387
0.0980535
0.0998368
0.100545
0.101491
0.102338
0.10292
0.103854
0.104795
0.107033
0.115662
0.196369
0.21909
0.345724
0.170111
0.114511
0.0943385
0.0878186
0.0871049
0.0886838
0.0916025
0.0944378
0.0961343
0.0970887
0.098574
0.100633
0.102625
0.104003
0.105421
0.11124
0.127679
0.252114
0.248416
0.346257
0.16927
0.112942
0.0935598
0.0880678
0.0888111
0.0921207
0.0954443
0.0972668
0.0985601
0.0998184
0.101671
0.104277
0.107183
0.10953
0.112488
0.122111
0.142101
0.255407
0.303801
0.348203
0.169083
0.113722
0.094442
0.088523
0.0891963
0.0932194
0.0960036
0.0955531
0.095719
0.0975041
0.10016
0.103279
0.107632
0.11295
0.119985
0.136704
0.167578
0.248437
0.370443
0.350886
0.170277
0.118647
0.102091
0.0980438
0.0992253
0.103412
0.105199
0.102758
0.102153
0.104334
0.106625
0.108112
0.112425
0.120211
0.132799
0.162514
0.218459
0.264462
0.528877
0.355561
0.220677
0.22255
0.234457
0.250899
0.269541
0.287719
0.298327
0.293613
0.290824
0.291848
0.287981
0.274188
0.261197
0.249829
0.25063
0.287805
0.393529
0.454291
0.866989
0.418462
0.495973
0.532257
0.583046
0.628554
0.667749
0.697481
0.709976
0.70129
0.699645
0.696648
0.687796
0.661863
0.627098
0.588519
0.545621
0.519089
0.594934
1.05599
0.756244
0.570584
0.354388
0.267121
0.222375
0.197151
0.183632
0.173686
0.168304
0.167497
0.16683
0.163961
0.163147
0.167527
0.169854
0.171936
0.179322
0.191393
0.230104
0.390953
0.45087
0.587184
0.334978
0.216842
0.158682
0.127765
0.111552
0.102903
0.098884
0.0969158
0.0960766
0.096921
0.0975783
0.0959624
0.0931576
0.0917293
0.091653
0.0904691
0.0868009
0.0860055
0.0953473
0.356022
0.179646
0.12191
0.102088
0.0955187
0.0938011
0.094702
0.0971978
0.0993758
0.101453
0.103128
0.102852
0.100564
0.0986536
0.0990438
0.100046
0.0993165
0.0997049
0.142191
0.162187
0.347252
0.169374
0.114668
0.0952367
0.0891691
0.0887985
0.0908098
0.0946747
0.0983247
0.100124
0.100831
0.101807
0.102752
0.103436
0.104465
0.105482
0.107704
0.116172
0.196736
0.219325
0.345803
0.169754
0.114045
0.093941
0.0874277
0.0866646
0.088192
0.0911429
0.0940047
0.095647
0.0964867
0.0980064
0.10029
0.102566
0.104153
0.105634
0.111383
0.12763
0.251811
0.248401
0.346463
0.168711
0.112285
0.0929025
0.0873084
0.0879066
0.0910505
0.0943915
0.0962001
0.0973189
0.0984225
0.10039
0.10339
0.106742
0.109378
0.112425
0.12195
0.141762
0.255182
0.303574
0.348391
0.168569
0.113213
0.0939181
0.0878534
0.088376
0.0922992
0.0951406
0.0946212
0.0945204
0.0961216
0.0989273
0.102494
0.10723
0.112749
0.119868
0.136544
0.167342
0.248418
0.370174
0.35099
0.169872
0.118237
0.101686
0.0975376
0.0986405
0.102909
0.104822
0.102255
0.101336
0.103365
0.105918
0.107851
0.112354
0.12013
0.132738
0.162488
0.218648
0.264547
0.528736
0.355625
0.220378
0.222025
0.233773
0.250038
0.268372
0.286582
0.297591
0.292648
0.289107
0.290181
0.286844
0.274336
0.261636
0.250178
0.250801
0.28792
0.39382
0.454461
0.867113
0.418586
0.496171
0.531842
0.582125
0.627091
0.666004
0.695977
0.709117
0.700277
0.698044
0.694846
0.686775
0.66219
0.627409
0.588725
0.54592
0.519575
0.595509
1.05685
0.756327
0.570717
0.354353
0.2671
0.222526
0.197493
0.184065
0.174086
0.168792
0.168229
0.167701
0.164655
0.163609
0.167909
0.170228
0.172366
0.179843
0.191993
0.230727
0.391672
0.451151
0.587381
0.335449
0.217245
0.158852
0.127679
0.111246
0.102413
0.0982735
0.0962591
0.0954133
0.0962756
0.0969675
0.0953616
0.0925137
0.0910439
0.0909922
0.0899095
0.0863658
0.0856404
0.0950179
0.355988
0.179811
0.12213
0.102271
0.0956369
0.0938192
0.0945791
0.0969575
0.0990715
0.101149
0.102891
0.102658
0.100316
0.0982785
0.0985829
0.0996259
0.0990421
0.0995728
0.141995
0.161891
0.347115
0.169498
0.114831
0.0955018
0.0894913
0.0891544
0.091172
0.0950966
0.0988324
0.100762
0.101573
0.102538
0.10338
0.103919
0.104836
0.105812
0.107988
0.116371
0.196787
0.21916
0.345984
0.169754
0.114141
0.0939423
0.0872881
0.0863736
0.0877817
0.0907242
0.093716
0.0954994
0.0963463
0.0978119
0.100087
0.102425
0.104122
0.105712
0.111509
0.12777
0.252016
0.24843
0.346918
0.168788
0.112507
0.0928877
0.0869719
0.0872705
0.0901518
0.0934917
0.0954662
0.0966466
0.0976525
0.0995363
0.102626
0.10624
0.109169
0.11243
0.122081
0.14198
0.255345
0.30422
0.348839
0.168711
0.113489
0.0939255
0.0874922
0.0876822
0.0913807
0.0943227
0.0939686
0.0937994
0.0951898
0.0978471
0.101548
0.106618
0.112486
0.119867
0.136744
0.16774
0.248561
0.370451
0.351306
0.169988
0.118414
0.10163
0.0971286
0.0979141
0.102108
0.104197
0.101741
0.100678
0.102466
0.104889
0.106942
0.111714
0.119804
0.132716
0.16272
0.219135
0.264666
0.528627
0.35582
0.220429
0.22222
0.23359
0.249465
0.267161
0.28519
0.296294
0.29167
0.287947
0.289299
0.285908
0.27326
0.260909
0.250106
0.251045
0.288362
0.394476
0.454748
0.867136
0.418645
0.496378
0.532342
0.582178
0.626216
0.66439
0.694397
0.708132
0.699861
0.697597
0.694043
0.685751
0.661022
0.626925
0.588712
0.546303
0.520171
0.596135
1.05736
0.756359
0.570759
0.354417
0.267222
0.222705
0.197809
0.184502
0.17454
0.1693
0.168801
0.168384
0.165217
0.163865
0.168065
0.170424
0.172673
0.180265
0.192459
0.231172
0.392084
0.451305
0.58738
0.336208
0.21776
0.158952
0.127432
0.110725
0.101652
0.0973472
0.095227
0.0943112
0.0951272
0.0958071
0.0941692
0.0911997
0.0895754
0.0894549
0.0884775
0.0853084
0.0849367
0.0944623
0.355809
0.179793
0.122104
0.102309
0.0956863
0.0938082
0.094441
0.0966621
0.0986554
0.100676
0.102495
0.102408
0.100058
0.0977895
0.097801
0.0986838
0.0981613
0.0989319
0.141082
0.161131
0.346904
0.169352
0.114725
0.0955566
0.0895919
0.0892502
0.0912311
0.0951505
0.0989497
0.101044
0.102069
0.10316
0.103906
0.104153
0.104734
0.105508
0.107681
0.116253
0.196563
0.218686
0.345909
0.169719
0.114243
0.0940907
0.0874303
0.0864795
0.0878361
0.0908182
0.0940374
0.096129
0.0972052
0.098696
0.100811
0.102881
0.104327
0.105796
0.111648
0.128255
0.253147
0.248337
0.346879
0.168965
0.112787
0.0931791
0.0872494
0.0875064
0.0903759
0.0938967
0.0962448
0.0977485
0.0988264
0.100534
0.103338
0.106711
0.109495
0.112691
0.122411
0.142671
0.255857
0.305017
0.348779
0.168999
0.113834
0.0942478
0.0877563
0.0878815
0.0916453
0.0948999
0.094933
0.094927
0.0961857
0.0985355
0.101918
0.106833
0.112689
0.120113
0.137099
0.168413
0.248456
0.370571
0.351244
0.17026
0.118721
0.101854
0.0972157
0.0978671
0.102126
0.104589
0.102497
0.101494
0.103057
0.105084
0.106769
0.111417
0.119617
0.132765
0.163036
0.219624
0.264359
0.528358
0.355758
0.220855
0.222975
0.234139
0.249551
0.266662
0.284623
0.296744
0.293222
0.289856
0.290868
0.28671
0.272846
0.260143
0.249808
0.251009
0.288604
0.394957
0.454632
0.866947
0.418485
0.497188
0.533717
0.583136
0.626243
0.663747
0.693963
0.708743
0.701904
0.699656
0.695511
0.686354
0.660091
0.626652
0.58858
0.546189
0.52012
0.596223
1.05714
0.756261
0.570921
0.354504
0.2671
0.222407
0.197486
0.18421
0.17418
0.168856
0.16837
0.16806
0.164888
0.163309
0.167691
0.170246
0.172553
0.180093
0.192233
0.230965
0.391859
0.451184
0.586916
0.33616
0.217723
0.158862
0.127291
0.110502
0.101314
0.0968667
0.0946349
0.0936524
0.0944284
0.0951421
0.0935608
0.0905247
0.0887071
0.088388
0.0873884
0.0845083
0.0844165
0.0940886
0.355764
0.179623
0.121959
0.102221
0.0956092
0.0936634
0.0941314
0.0961707
0.0980404
0.0999641
0.101823
0.101946
0.0997409
0.0973545
0.0970878
0.0977769
0.097316
0.0983937
0.14032
0.160599
0.346966
0.169104
0.114512
0.0952971
0.0892934
0.0888421
0.0906719
0.0944742
0.098251
0.100396
0.101619
0.102988
0.103912
0.104111
0.104489
0.105128
0.107391
0.116329
0.196701
0.218548
0.345906
0.16966
0.114265
0.0941291
0.0874285
0.0864065
0.0876704
0.0906109
0.0939186
0.0962488
0.0975936
0.0992916
0.101466
0.103433
0.104717
0.106088
0.112051
0.129164
0.254855
0.248187
0.346716
0.169042
0.112892
0.0933344
0.0874368
0.0876871
0.090525
0.09412
0.0967475
0.098573
0.0998349
0.101526
0.104156
0.107333
0.109978
0.113099
0.122861
0.143449
0.256051
0.304993
0.348553
0.169075
0.113823
0.09427
0.0878064
0.087922
0.0917138
0.0952074
0.0956479
0.0959197
0.0971914
0.0993358
0.102403
0.107109
0.112904
0.120341
0.137373
0.16872
0.247896
0.37048
0.35107
0.170247
0.118573
0.101671
0.0969805
0.0975465
0.101864
0.104703
0.103069
0.10224
0.103669
0.105352
0.10669
0.111172
0.119411
0.132726
0.163143
0.219543
0.263753
0.528472
0.355639
0.221062
0.223265
0.23428
0.249507
0.266066
0.28418
0.297466
0.295245
0.292288
0.292739
0.287464
0.272375
0.25923
0.249107
0.250573
0.288432
0.394773
0.454058
0.866678
0.418261
0.498183
0.535079
0.584195
0.626737
0.663915
0.69454
0.710537
0.705173
0.702933
0.698153
0.687835
0.65907
0.626202
0.588269
0.545963
0.519929
0.596049
1.05637
0.75615
0.571218
0.354645
0.266817
0.221852
0.196841
0.183551
0.173353
0.167665
0.167115
0.166948
0.163981
0.162528
0.167121
0.169796
0.172119
0.179622
0.191767
0.230569
0.391393
0.451048
0.587259
0.335892
0.217445
0.158697
0.127216
0.110457
0.101264
0.0967194
0.0944114
0.0933986
0.0941211
0.0948438
0.0933456
0.090291
0.0882925
0.0877225
0.0866827
0.0840952
0.0843153
0.0942223
0.355898
0.179451
0.12188
0.102115
0.0954606
0.0934555
0.0937793
0.0956875
0.0975449
0.0994151
0.101223
0.101452
0.0993981
0.0969821
0.0965073
0.0970794
0.096807
0.0983382
0.140307
0.160878
0.347156
0.169032
0.114575
0.0952813
0.089197
0.0886092
0.090268
0.0939131
0.0976275
0.0997044
0.100882
0.102352
0.103499
0.10386
0.10425
0.1049
0.107356
0.116691
0.197041
0.219009
0.345971
0.169724
0.114437
0.0942869
0.0875207
0.0863927
0.087517
0.0903374
0.0935847
0.0958703
0.097186
0.0989313
0.101247
0.103386
0.104794
0.106257
0.112391
0.129723
0.254857
0.248329
0.346644
0.169106
0.112955
0.0934005
0.0875041
0.0877222
0.0904363
0.0939618
0.0966669
0.098588
0.0998811
0.101555
0.104164
0.107385
0.110127
0.113331
0.123179
0.14373
0.255376
0.30429
0.348455
0.169028
0.113646
0.0941057
0.0876907
0.0878321
0.0916104
0.0952131
0.0959415
0.0964281
0.0977678
0.099856
0.1028
0.107422
0.113189
0.120571
0.137448
0.168522
0.247845
0.371582
0.351032
0.170051
0.118207
0.101318
0.0966859
0.0972924
0.101685
0.1048
0.10355
0.102869
0.104253
0.105854
0.107173
0.111692
0.119947
0.13306
0.163127
0.2188
0.263882
0.52973
0.35563
0.220936
0.223153
0.234205
0.249482
0.266102
0.284215
0.298507
0.297323
0.294426
0.293996
0.288017
0.272627
0.25969
0.249218
0.250615
0.288323
0.394253
0.453835
0.866499
0.418037
0.498728
0.536157
0.585379
0.627974
0.665392
0.696536
0.713349
0.708675
0.706086
0.70035
0.689058
0.659369
0.626947
0.589285
0.546751
0.520204
0.596027
1.05524
0.756097
0.571406
0.354594
0.266386
0.221123
0.195906
0.18251
0.172073
0.165414
0.164284
0.164214
0.161645
0.160602
0.165568
0.168489
0.170945
0.17857
0.190885
0.22992
0.390662
0.450989
0.587494
0.335547
0.217044
0.158357
0.126934
0.110201
0.101097
0.0965633
0.0942845
0.0933603
0.0940722
0.0947779
0.0933661
0.0903564
0.0882618
0.0875744
0.0866615
0.0844442
0.0850029
0.0952188
0.356057
0.179337
0.121868
0.102027
0.0953087
0.0933327
0.0936293
0.0955111
0.0975147
0.0994568
0.10117
0.101362
0.0993859
0.0969728
0.0963819
0.096959
0.0970349
0.0991004
0.141456
0.161909
0.347237
0.169099
0.11475
0.0954466
0.0893185
0.088648
0.0901778
0.0936758
0.0973363
0.0992787
0.100143
0.101346
0.102498
0.103048
0.103598
0.104395
0.107146
0.116775
0.196514
0.218879
0.345941
0.169808
0.114593
0.0944436
0.0876169
0.0864007
0.0873781
0.090012
0.0930872
0.0950946
0.0960208
0.0974232
0.0996374
0.101958
0.103634
0.105339
0.111662
0.128678
0.250934
0.247963
0.346556
0.169109
0.112973
0.0934428
0.0875769
0.087815
0.0904444
0.093802
0.0963984
0.0981713
0.0992724
0.100761
0.103263
0.106527
0.109411
0.112739
0.122669
0.142909
0.254258
0.304102
0.348368
0.169014
0.113608
0.0941719
0.0879347
0.088276
0.0922194
0.0958769
0.0967472
0.0972829
0.0986643
0.100776
0.103682
0.108166
0.113692
0.120744
0.137167
0.168134
0.249227
0.374345
0.350963
0.170024
0.11814
0.10142
0.0970524
0.0979727
0.102632
0.105878
0.104764
0.103931
0.105228
0.10698
0.108647
0.113325
0.121268
0.133879
0.16325
0.218194
0.264975
0.531308
0.355566
0.220894
0.223345
0.234774
0.250113
0.267418
0.285906
0.300517
0.299513
0.295666
0.294301
0.28794
0.273522
0.261165
0.250026
0.25102
0.28848
0.394176
0.45391
0.866252
0.417736
0.498875
0.537302
0.587063
0.630338
0.668624
0.700569
0.717362
0.71036
0.707128
0.701134
0.689614
0.661284
0.628963
0.590818
0.547148
0.519792
0.595435
1.05179
0.755667
0.571438
0.354184
0.265564
0.219836
0.194238
0.180727
0.170557
0.163079
0.160528
0.160236
0.157527
0.15649
0.16199
0.165206
0.167862
0.175842
0.188673
0.228277
0.388734
0.450462
0.58723
0.335066
0.216566
0.157927
0.126595
0.109884
0.100982
0.0965965
0.0944836
0.0937937
0.0945819
0.0953012
0.0940514
0.0912487
0.0891813
0.0885827
0.0879296
0.0860057
0.0867273
0.0967975
0.356165
0.179377
0.121983
0.102132
0.0953191
0.0934257
0.0938314
0.0957995
0.0980482
0.100159
0.101783
0.101872
0.0999732
0.0976667
0.0971058
0.0977947
0.0982538
0.100703
0.14335
0.161967
0.347273
0.16917
0.11476
0.0953824
0.0892043
0.0885203
0.0900631
0.093507
0.0971709
0.0990187
0.0994719
0.100145
0.101039
0.101693
0.102476
0.103511
0.106614
0.116376
0.194511
0.215107
0.345925
0.169722
0.114395
0.0941813
0.0873087
0.0861209
0.0871495
0.0897276
0.092681
0.0944452
0.0949651
0.0958922
0.0977653
0.100045
0.10192
0.103889
0.110443
0.127095
0.245577
0.245456
0.346502
0.168945
0.112747
0.0932675
0.087511
0.0879332
0.0907422
0.0941084
0.0966061
0.0981853
0.0991408
0.100464
0.102736
0.105814
0.108633
0.111997
0.122028
0.142683
0.254787
0.306489
0.348249
0.169047
0.113666
0.0944216
0.0884675
0.0891826
0.09356
0.0972717
0.0980446
0.0983253
0.0996772
0.101953
0.10494
0.109241
0.11439
0.121079
0.137317
0.168875
0.251115
0.37669
0.350772
0.17021
0.118319
0.10181
0.0977549
0.0990812
0.104159
0.1073
0.105757
0.104249
0.1053
0.107386
0.109608
0.114468
0.122193
0.134578
0.163918
0.219084
0.265594
0.53255
0.355405
0.220939
0.223536
0.235296
0.250988
0.269057
0.288633
0.30348
0.300788
0.294704
0.29241
0.28669
0.273863
0.261612
0.250159
0.250963
0.288699
0.394666
0.453001
0.866933
0.417439
0.498997
0.538117
0.588392
0.63291
0.672349
0.705294
0.719335
0.709257
0.703848
0.700769
0.689482
0.662759
0.630709
0.590828
0.545332
0.517425
0.592985
1.04217
0.75459
0.571378
0.35334
0.264421
0.218788
0.193311
0.179716
0.170208
0.164003
0.161857
0.161701
0.159369
0.158426
0.163235