/*--------------------------------*- C++ -*----------------------------------*\
  =========                 |
  \\      /  F ield         | OpenFOAM: The Open Source CFD Toolbox
   \\    /   O peration     | Website:  https://openfoam.org
    \\  /    A nd           | Version:  8
     \\/     M anipulation  |
\*---------------------------------------------------------------------------*/
FoamFile
{
    version     2.0;
    format      ascii;
    class       volScalarField;
    location    "0.005";
    object      p_rgh;
}
// * * * * * * * * * * * * * * * * * * * * * * * * * * * * * * * * * * * * * //

dimensions      [1 -1 -2 0 0 0 0];

internalField   nonuniform List<scalar> 
4000
(
72.6717
66.8227
62.1626
57.1823
52.214
47.2176
42.2333
37.239
32.4202
27.8381
23.4403
19.382
15.7976
12.6248
9.76482
7.2319
5.10205
3.39449
2.10413
1.23241
75.1505
67.247
62.0487
56.9163
51.9239
46.8871
41.8435
36.8628
32.0101
27.3252
22.9186
18.9142
15.3087
12.0367
9.0894
6.53955
4.46778
2.88218
1.89702
1.62037
76.6794
67.5567
61.9971
56.7302
51.6677
46.6172
41.5848
36.5628
31.6582
26.9744
22.5836
18.4915
14.6895
11.2246
8.1685
5.59756
3.57342
2.12496
1.58762
2.16941
77.5061
67.4007
61.6382
56.325
51.2763
46.2466
41.2094
36.1993
31.31
26.5688
22.0691
17.8134
13.7901
10.0947
6.85128
4.16198
2.11282
0.812407
0.874567
2.61323
77.8289
66.8666
61.0045
55.7323
50.7481
45.7713
40.7331
35.7325
30.87
26.0671
21.4331
16.9841
12.6959
8.68172
5.10874
2.12837
-0.0985809
-1.30535
-0.503679
2.77806
77.6986
65.9768
60.1128
54.9297
49.9972
45.1061
40.1232
35.1688
30.3608
25.5291
20.7588
16.0728
11.4487
7.00042
2.9113
-0.620629
-3.32373
-4.69436
-3.20662
2.13831
77.1399
64.7799
58.9715
54.0031
49.1681
44.4194
39.5987
34.7686
30.0303
25.1808
20.2611
15.2981
10.2818
5.29532
0.479033
-3.96909
-7.70042
-9.96478
-8.38781
-0.269572
75.7591
63.9566
58.4793
54.0154
49.4938
44.9215
40.3055
35.6249
30.9205
26.0256
20.9448
15.7053
10.2977
4.72565
-0.978798
-6.70344
-12.1924
-16.7055
-17.0014
-6.75982
73.8951
71.3757
67.4658
63.551
59.4531
55.1297
50.7488
46.2265
41.5457
36.6083
31.4087
25.9746
20.2779
14.2286
7.74022
0.767269
-6.79203
-14.8539
-20.4843
-12.6669
72.8198
118.758
122.109
119.101
115.062
110.713
106.311
101.778
97.0631
92.0978
86.8633
81.3734
75.5827
69.3627
62.5895
55.1407
46.642
36.498
26.5801
29.9037
73.3807
67.18
62.3676
57.3785
52.4204
47.4105
42.3716
37.3908
32.5753
27.9415
23.5295
19.5133
15.9661
12.7916
9.9116
7.37181
5.25768
3.56757
2.25267
1.33935
75.7524
67.7648
62.5069
57.3914
52.3467
47.3306
42.2755
37.2435
32.3688
27.7045
23.3227
19.3202
15.7079
12.4325
9.48674
6.94595
4.88255
3.27576
2.20087
1.87577
77.1869
68.2535
62.6477
57.4017
52.3306
47.2854
42.2171
37.1571
32.2315
27.5671
23.192
19.0864
15.2753
11.8195
8.77901
6.22103
4.18864
2.68097
1.99338
2.56857
77.9722
68.2674
62.514
57.2535
52.1952
47.1488
42.1024
37.0879
32.1527
27.4161
22.9414
18.6772
14.6424
10.9565
7.73382
5.05896
2.99094
1.61587
1.50324
3.23827
78.2791
67.9238
62.1336
56.9308
51.9397
46.8802
41.8257
36.8618
31.9587
27.1583
22.5549
18.0977
13.7918
9.78293
6.23356
3.275
1.04364
-0.220791
0.367658
3.57032
78.2235
67.2962
61.5004
56.3256
51.4576
46.4642
41.447
36.5558
31.73
26.9011
22.1519
17.453
12.8111
8.36836
4.30279
0.796636
-1.89362
-3.31037
-2.08956
3.14343
77.6898
66.2526
60.5392
55.444
50.6867
45.898
41.0424
36.278
31.5478
26.7031
21.7922
16.8207
11.8047
6.83428
2.04727
-2.35241
-6.01688
-8.25921
-6.87536
1.22827
76.2749
65.1357
59.8737
55.2262
50.6141
46.0273
41.3652
36.7147
32.0197
27.1225
22.0417
16.8119
11.4332
5.89004
0.231961
-5.38171
-10.6816
-14.9608
-15.0999
-4.65243
74.1929
69.2995
65.3848
61.4596
57.2933
52.9901
48.5902
44.0795
39.4028
34.4566
29.2557
23.8485
18.1928
12.1632
5.72744
-1.078
-8.36362
-16.0199
-21.0735
-12.5835
73.227
109.327
111.158
108.147
104.244
100.003
95.6537
91.1442
86.4349
81.4641
76.2355
70.7778
65.0099
58.7901
52.0907
44.8099
36.4916
26.7032
17.3316
21.1711
73.632
67.3699
62.521
57.5167
52.5386
47.5137
42.4851
37.4975
32.6681
28.0291
23.6181
19.6066
16.0649
12.8934
10.014
7.47694
5.36492
3.66068
2.31271
1.35675
75.9364
67.9758
62.6647
57.5254
52.4937
47.455
42.3771
37.3188
32.4348
27.7745
23.3947
19.3955
15.7907
12.5214
9.57817
7.04216
4.97868
3.34342
2.2098
1.85751
77.3443
68.4356
62.7965
57.5398
52.4713
47.3952
42.303
37.2087
32.2822
27.6348
23.2629
19.1558
15.3521
11.9064
8.87141
6.31267
4.26273
2.70674
1.9478
2.51842
78.1076
68.4542
62.6913
57.4263
52.3581
47.3046
42.2588
37.2097
32.2748
27.5637
23.0953
18.8257
14.7953
11.1215
7.90965
5.23343
3.14139
1.70961
1.5118
3.21229
78.4266
68.1577
62.3754
57.1701
52.108
47.0484
42.0012
37.0053
32.1098
27.3413
22.7431
18.2753
13.9719
9.97887
6.4474
3.49206
1.2475
-0.0693347
0.392304
3.50532
78.3946
67.5321
61.736
56.6245
51.6505
46.6688
41.6603
36.7432
31.9325
27.133
22.3816
17.6705
13.0381
8.62026
4.58292
1.09584
-1.57646
-3.03085
-1.96455
3.14105
77.9284
66.44
60.7231
55.7086
50.8626
46.0944
41.2479
36.4711
31.7634
26.9402
22.0207
17.047
12.0579
7.12185
2.37392
-1.97327
-5.55464
-7.76076
-6.44986
1.47063
76.8349
65.446
60.0458
55.3594
50.6788
46.1179
41.4693
36.8256
32.1618
27.2788
22.1913
16.9809
11.6475
6.1414
0.544801
-4.9392
-10.0261
-14.0843
-14.0761
-3.83776
75.1224
69.8882
65.6234
61.544
57.239
52.8774
48.4347
43.9113
39.2515
34.3071
29.1077
23.74
18.1318
12.1333
5.8017
-0.772696
-7.73319
-14.954
-19.4432
-10.7974
74.2001
109.041
110.199
107.022
103.048
98.7811
94.4188
89.9207
85.2262
80.2551
75.0398
69.6207
63.8834
57.7071
51.1484
44.1009
36.1593
26.9359
18.417
22.3154
73.7807
67.4954
62.6325
57.6238
52.6358
47.6111
42.5827
37.5841
32.7361
28.0859
23.6793
19.6815
16.1516
12.984
10.103
7.56762
5.46195
3.75322
2.37164
1.37396
76.0729
68.0889
62.7678
57.6254
52.583
47.5297
42.4234
37.3461
32.4583
27.8005
23.4268
19.4382
15.8445
12.5793
9.63349
7.0954
5.03055
3.3882
2.21647
1.83806
77.4779
68.5447
62.9
57.6353
52.5563
47.4679
42.3444
37.2374
32.3209
27.6824
23.3128
19.212
15.4199
11.9821
8.94835
6.38174
4.30892
2.7234
1.92188
2.48289
78.2418
68.5641
62.8005
57.5262
52.4728
47.4223
42.3468
37.2863
32.3674
27.6701
23.2022
18.9345
14.9145
11.2518
8.04608
5.35963
3.23964
1.77962
1.53291
3.2001
78.5525
68.2841
62.4906
57.233
52.1908
47.1282
42.0465
37.0464
32.178
27.4272
22.8254
18.3549
14.0638
10.0896
6.57489
3.61699
1.35758
0.0233966
0.409375
3.46331
78.5052
67.6942
61.8601
56.6803
51.7341
46.7391
41.6926
36.7816
32.0075
27.2241
22.4621
17.749
13.138
8.74811
4.73453
1.25475
-1.41226
-2.87343
-1.89774
3.12359
77.9281
66.6717
60.8867
55.8213
51.004
46.1997
41.3129
36.5492
31.8759
27.0568
22.1211
17.1572
12.2053
7.30079
2.57895
-1.74068
-5.2779
-7.44686
-6.1911
1.56876
76.659
65.5513
60.0695
55.3723
50.7445
46.1598
41.5011
36.8944
32.2656
27.3782
22.2807
17.1023
11.8186
6.33848
0.780742
-4.62749
-9.61296
-13.5564
-13.5176
-3.49309
75.0556
70.0123
65.7207
61.6464
57.3433
52.944
48.4975
44.0042
39.3609
34.4051
29.2105
23.8912
18.3273
12.3504
6.09386
-0.360906
-7.19994
-14.1632
-18.4439
-10.0919
74.4122
109.284
110.382
107.144
103.103
98.8014
94.448
89.9714
85.2821
80.3065
75.1102
69.7337
64.0265
57.8927
51.4189
44.4486
36.6857
27.7536
19.4767
23.0932
73.8448
67.5698
62.7084
57.6996
52.7171
47.6982
42.6671
37.6545
32.7917
28.1392
23.7431
19.7594
16.2389
13.0722
10.1857
7.64537
5.53778
3.82752
2.43157
1.39881
76.1436
68.1704
62.8533
57.7107
52.6617
47.5935
42.4743
37.3904
32.5006
27.8456
23.4802
19.5036
15.9201
12.6573
9.70802
7.16486
5.08744
3.4276
2.23564
1.83807
77.5582
68.6309
62.9807
57.7242
52.6406
47.5342
42.4005
37.2958
32.3839
27.7481
23.3834
19.2935
15.5133
12.08
9.04385
6.46606
4.36386
2.74554
1.92344
2.47407
78.3087
68.629
62.863
57.6307
52.5891
47.5177
42.428
37.3708
32.4612
27.7687
23.3038
19.045
15.0382
11.3853
8.18539
5.48935
3.3351
1.84327
1.57698
3.21647
78.6092
68.3215
62.5166
57.3014
52.2685
47.1759
42.0792
37.0907
32.2404
27.4958
22.8912
18.4254
14.1499
10.1932
6.69452
3.73596
1.45328
0.0975181
0.456939
3.47448
78.5936
67.6992
61.8735
56.7256
51.7767
46.7483
41.6943
36.8088
32.0627
27.284
22.5127
17.8055
13.2196
8.85499
4.86237
1.39129
-1.28403
-2.76181
-1.82133
3.14421
78.0934
66.695
60.9635
55.9104
51.0572
46.2119
41.3231
36.5899
31.9412
27.1164
22.1671
17.2212
12.3094
7.4317
2.7337
-1.55049
-5.0586
-7.22422
-6.0162
1.62623
76.8131
65.5594
60.1545
55.4459
50.7641
46.1477
41.5022
36.9328
32.3233
27.4228
22.3183
17.1779
11.9422
6.48244
0.970969
-4.33657
-9.2423
-13.1782
-13.2157
-3.34708
75.0179
69.9343
65.7368
61.6536
57.3095
52.8993
48.4741
44.0109
39.3749
34.4052
29.2184
23.9477
18.4227
12.4696
6.31219
0.0100746
-6.75142
-13.6677
-17.962
-9.82429
74.313
109.244
110.374
107.121
103.049
98.7405
94.4038
89.9449
85.2561
80.2761
75.1
69.7616
64.0824
58.0093
51.6597
44.8191
37.1591
28.2979
20.0274
23.4049
73.8913
67.6089
62.7557
57.758
52.7892
47.7787
42.7433
37.7187
32.8492
28.201
23.8153
19.8413
16.3267
13.1602
10.2693
7.72521
5.61542
3.89869
2.4831
1.41913
76.1941
68.2229
62.91
57.7656
52.7181
47.6532
42.5339
37.4462
32.554
27.9021
23.5447
19.5781
16.0022
12.7389
9.78316
7.23479
5.15091
3.47728
2.2624
1.84412
77.6247
68.6882
63.044
57.7832
52.6993
47.599
42.4698
37.3637
32.4492
27.8155
23.459
19.3817
15.6124
12.1812
9.14197
6.55753
4.43552
2.78469
1.93045
2.46582
78.3442
68.6575
62.9258
57.7049
52.6606
47.5892
42.5
37.4417
32.5332
27.8459
23.3891
19.1417
15.1462
11.4986
8.30232
5.60456
3.43158
1.90989
1.61102
3.22222
78.5943
68.3136
62.555
57.3542
52.3103
47.2105
42.1138
37.1307
32.289
27.5507
22.9483
18.4893
14.2268
10.2809
6.79224
3.83878
1.54854
0.174875
0.502366
3.48635
78.5728
67.6944
61.903
56.7651
51.8019
46.767
41.7189
36.8504
32.1217
27.3473
22.5705
17.8705
13.3068
8.9578
4.97101
1.50168
-1.17529
-2.66416
-1.7523
3.16991
78.1346
66.7597
61.0339
55.9789
51.1059
46.2578
41.3826
36.6739
32.043
27.2137
22.2539
17.326
12.4503
7.58336
2.87499
-1.40918
-4.90591
-7.07298
-5.89734
1.67125
76.9531
65.7028
60.2597
55.5312
50.825
46.2063
41.579
37.0367
32.4399
27.5271
22.4169
17.3123
12.1175
6.65042
1.12194
-4.16039
-9.02954
-12.9594
-13.0358
-3.27181
75.2077
70.0937
65.8424
61.7296
57.3705
52.9651
48.5604
44.1197
39.4881
34.5061
29.3271
24.1003
18.6019
12.6309
6.48024
0.228823
-6.48773
-13.372
-17.7114
-9.71077
74.4771
109.366
110.458
107.184
103.11
98.8079
94.4871
90.0417
85.3528
80.3703
75.2134
69.9061
64.2356
58.167
51.8397
45.0572
37.4694
28.6297
20.307
23.532
73.8711
67.605
62.7623
57.7774
52.8217
47.8168
42.7782
37.7491
32.8802
28.2375
23.8577
19.8882
16.3766
13.2093
10.3127
7.76197
5.6484
3.9308
2.51074
1.43167
76.1899
68.2293
62.9179
57.7822
52.7516
47.6987
42.5816
37.4907
32.5972
27.9483
23.5965
19.6374
16.0683
12.8047
9.84072
7.28364
5.1927
3.51201
2.28844
1.85726
77.6405
68.7038
63.0514
57.8025
52.743
47.6591
42.5306
37.4172
32.4993
27.8702
23.523
19.4566
15.6964
12.2655
9.21906
6.6246
4.48587
2.81293
1.94113
2.46785
78.3275
68.6551
62.9195
57.7115
52.6904
47.6319
42.5393
37.4732
32.5658
27.8883
23.4423
19.2042
15.2169
11.5716
8.37388
5.67192
3.48441
1.94249
1.62756
3.22639
78.5325
68.3026
62.5503
57.3589
52.3332
47.242
42.1418
37.1566
32.324
27.5983
23.0013
18.5458
14.292
10.3545
6.87137
3.91905
1.61969
0.2297
0.535898
3.4964
78.4781
67.6724
61.8925
56.7624
51.8155
46.7873
41.7385
36.8769
32.1651
27.401
22.6203
17.9214
13.3765
9.04597
5.06594
1.59639
-1.08471
-2.58384
-1.69541
3.1905
78.0316
66.7316
61.0166
55.9676
51.109
46.2684
41.3989
36.706
32.0941
27.2665
22.295
17.3772
12.5385
7.69586
2.98797
-1.29303
-4.77752
-6.94644
-5.80624
1.70466
76.8887
65.6896
60.2481
55.523
50.8286
46.2161
41.5987
37.0761
32.4938
27.5733
22.4532
17.3765
12.2315
6.78323
1.25487
-4.00551
-8.85215
-12.7956
-12.917
-3.2277
75.1994
70.1049
65.8452
61.7282
57.3754
52.9759
48.5838
44.1603
39.5349
34.5432
29.3669
24.1797
18.725
12.7698
6.63818
0.41419
-6.29232
-13.1836
-17.5709
-9.65586
74.4916
109.382
110.466
107.192
103.12
98.8246
94.5153
90.0809
85.3933
80.4087
75.2668
69.9915
64.3489
58.3076
51.9982
45.2371
37.6731
28.8302
20.4566
23.5906
73.8249
67.5578
62.7158
57.74
52.7933
47.7952
42.7616
37.7371
32.8728
28.2329
23.8537
19.8852
16.3762
13.2099
10.3093
7.7533
5.63906
3.92579
2.50971
1.43071
76.1499
68.1859
62.8831
57.7664
52.7555
47.7154
42.6035
37.5137
32.621
27.9737
23.6237
19.6687
16.1064
12.846
9.87718
7.31254
5.21771
3.53607
2.30885
1.86694
77.6232
68.6641
63.0229
57.8076
52.7755
47.7035
42.5737
37.4551
32.5375
27.9147
23.5747
19.5147
15.7613
12.3335
9.284
6.68453
4.53908
2.85455
1.96714
2.47766
78.2836
68.5869
62.8641
57.6955
52.7036
47.654
42.555
37.4825
32.5804
27.9165
23.4802
19.2457
15.2613
11.6186
8.42196
5.72085
3.5307
1.9806
1.65382
3.23707
78.5264
68.2679
62.5279
57.3764
52.3792
47.2943
42.1865
37.1988
32.3794
27.6719
23.0805
18.6199
14.3653
10.4329
6.95375
4.00029
1.69263
0.288277
0.575036
3.51092
78.5436
67.6916
61.9232
56.8321
51.9123
46.8877
41.832
36.9744
32.2831
27.536
22.7507
18.0402
13.5
9.18327
5.20482
1.72046
-0.983052
-2.50539
-1.64309
3.20946
78.1156
66.7647
61.0653
56.0503
51.2134
46.3738
41.5011
36.8197
32.2311
27.4125
22.4264
17.5007
12.6831
7.86195
3.14636
-1.15879
-4.66231
-6.84768
-5.73834
1.72906
76.9288
65.6918
60.2701
55.5742
50.8952
46.2825
41.6666
37.1599
32.5967
27.6749
22.5386
17.4689
12.3592
6.93021
1.39217
-3.87542
-8.72235
-12.6809
-12.8385
-3.20005
75.1857
70.0765
65.8338
61.7378
57.3927
52.9937
48.6073
44.1986
39.5838
34.5861
29.4041
24.2379
18.8167
12.8783
6.75814
0.546491
-6.15767
-13.0633
-17.4877
-9.62583
74.4581
109.351
110.445
107.183
103.116
98.8229
94.5213
90.0973
85.4137
80.4277
75.2941
70.0404
64.4217
58.4064
52.1141
45.3658
37.8077
28.9536
20.5418
23.6213
73.7225
67.4585
62.616
57.6447
52.7097
47.7275
42.7096
37.6967
32.8378
28.1976
23.8153
19.845
16.3386
13.1756
10.2736
7.71209
5.59499
3.88735
2.48471
1.42149
76.0634
68.102
62.8104
57.7096
52.7168
47.6941
42.5952
37.5124
32.6225
27.975
23.6232
19.6675
16.1085
12.8521
9.88228
7.31252
5.21392
3.53282
2.30792
1.86657
77.5357
68.5808
62.9664
57.7771
52.765
47.7065
42.5827
37.4662
32.5518
27.9344
23.5982
19.5395
15.7879
12.3631
9.31542
6.71636
4.56945
2.8796
1.98295
2.48309
78.1458
68.4785
62.7971
57.6613
52.6914
47.6524
42.5539
37.4805
32.5849
27.9335
23.5048
19.2682
15.2794
11.6373
8.44707
5.75503
3.57035
2.01736
1.67969
3.24713
78.3968
68.1782
62.483
57.3681
52.3938
47.3162
42.205
37.2166
32.4098
27.7207
23.1352
18.6637
14.3976
10.4672
7.00148
4.06187
1.75848
0.345554
0.613392
3.52484
78.451
67.6332
61.9048
56.8515
51.954
46.9331
41.8714
37.0159
32.3437
27.6167
22.8297
18.0995
13.5501
9.24741
5.29086
1.81687
-0.893289
-2.43452
-1.59822
3.22474
78.0469
66.7234
61.0571
56.0759
51.2559
46.4157
41.5371
36.8628
32.2969
27.4937
22.4962
17.5506
12.7386
7.94647
3.25215
-1.05301
-4.56915
-6.77287
-5.69005
1.74542
76.8678
65.652
60.2544
55.5851
50.9164
46.3007
41.6818
37.1862
32.6435
27.7278
22.576
17.498
12.4105
7.01218
1.48695
-3.78048
-8.63188
-12.6041
-12.7881
-3.18286
75.1286
70.038
65.8111
61.7317
57.3913
52.9901
48.6052
44.2079
39.6054
34.6067
29.416
24.2563
18.8595
12.9434
6.83837
0.63534
-6.06879
-12.9872
-17.4376
-9.60839
74.4133
109.32
110.426
107.173
103.109
98.8172
94.5202
90.1042
85.4253
80.4381
75.3067
70.065
64.465
58.4718
52.1942
45.4537
37.8948
29.0287
20.5907
23.638
73.5914
67.3389
62.4986
57.5371
52.6235
47.6671
42.6727
37.6757
32.8234
28.1829
23.7963
19.8221
16.3156
13.1547
10.2519
7.68571
5.56517
3.86133
2.46966
1.41768
75.9683
68.004
62.7133
57.627
52.6574
47.6606
42.5832
37.5131
32.6279
27.9801
23.6254
19.6673
16.1088
12.8535
9.88157
7.30598
5.20258
3.52183
2.30139
1.86447
77.4292
68.4838
62.8797
57.7064
52.7172
47.682
42.5747
37.4658
32.5541
27.9386
23.6035
19.5442
15.7909
12.3638
9.31342
6.7126
4.56622
2.87838
1.98314
2.48317
78.0506
68.4113
62.7501
57.6329
52.6872
47.6691
42.5811
37.5093
32.6151
27.9696
23.5465
19.3079
15.3097
11.6571
8.46054
5.7678
3.58471
2.03101
1.68876
3.24984
78.3393
68.1519
62.4817
57.3888
52.4394
47.3787
42.2708
37.2792
32.4757
27.7989
23.2217
18.7425
14.457
10.5098
7.03802
4.09968
1.79581
0.375516
0.630545
3.52935
78.4105
67.6222
61.9197
56.8915
52.0179
47.0084
41.9436
37.0838
32.4202
27.7114
22.9314
18.1858
13.6131
9.29953
5.34625
1.87658
-0.838837
-2.39491
-1.57708
3.23016
78.001
66.7054
61.064
56.1077
51.3073
46.4722
41.5871
36.9112
32.36
27.5764
22.5803
17.6166
12.7908
8.00338
3.32028
-0.983489
-4.51016
-6.7305
-5.6661
1.75265
76.8153
65.6222
60.2452
55.5961
50.9405
46.3251
41.7004
37.2079
32.682
27.7815
22.6272
17.5388
12.4545
7.0713
1.55524
-3.71431
-8.57483
-12.5602
-12.7612
-3.17369
75.0766
70.0016
65.7892
61.7222
57.3889
52.9866
48.5994
44.2081
39.619
34.6294
29.4392
24.2825
18.8981
12.9953
6.89768
0.694559
-6.01539
-12.945
-17.4114
-9.59976
74.3695
109.286
110.401
107.156
103.097
98.8052
94.5093
90.0991
85.4283
80.4476
75.3228
70.0901
64.5018
58.5212
52.25
45.509
37.9445
29.068
20.6143
23.645
73.4867
67.2333
62.4019
57.4596
52.573
47.647
42.6808
37.7038
32.8616
28.2235
23.8349
19.8581
16.3526
13.1961
10.2952
7.72399
5.59362
3.88016
2.4814
1.42271
75.8603
67.8865
62.6012
57.5358
52.5946
47.6296
42.58
37.5277
32.6496
28.0019
23.6439
19.6844
16.1299
12.881
9.91154
7.33166
5.22011
3.53199
2.30667
1.86623
77.2964
68.3532
62.7556
57.6032
52.6435
47.6395
42.5558
37.4576
32.5464
27.9272
23.5895
19.5313
15.7826
12.3599
9.31074
6.70823
4.56003
2.87196
1.97776
2.48016
77.9674
68.3243
62.6668
57.571
52.6562
47.667
42.5951
37.5242
32.6232
27.9731
23.5516
19.3172
15.3205
11.664
8.46023
5.76084
3.57374
2.01833
1.6767
3.24303
78.3093
68.1067
62.439
57.3696
52.4514
47.4149
42.3138
37.3139
32.5007
27.8244
23.2566
18.7839
14.4939
10.533
7.04676
4.09815
1.78768
0.362845
0.616896
3.52175
78.3969
67.5903
61.8934
56.8912
52.0477
47.0559
41.989
37.1159
32.4463
27.7477
22.9842
18.2444
13.6618
9.33167
5.36507
1.88639
-0.837175
-2.40047
-1.58536
3.22582
77.9782
66.6699
61.0391
56.1097
51.3354
46.5106
41.6176
36.9293
32.3798
27.6144
22.6366
17.6761
12.8417
8.04493
3.35464
-0.958026
-4.49564
-6.72492
-5.66443
1.75374
76.7813
65.5826
60.219
55.5931
50.9565
46.3444
41.71
37.2103
32.6928
27.8122
22.6732
17.5885
12.5043
7.12091
1.59984
-3.68053
-8.55278
-12.5464
-12.7525
-3.16992
75.0387
69.9633
65.7622
61.7113
57.3881
52.9842
48.5895
44.1965
39.6176
34.6445
29.468
24.3199
18.9417
13.0404
6.93748
0.724623
-5.99486
-12.9317
-17.4039
-9.59788
74.3331
109.25
110.373
107.14
103.086
98.7917
94.4917
90.0827
85.4207
80.4543
75.3453
70.1242
64.5419
58.5621
52.2859
45.5365
37.9641
29.0815
20.622
23.6473
73.3993
67.1388
62.3181
57.3964
52.5364
47.6419
42.7069
37.7546
32.9266
28.2942
23.9057
19.9267
16.4228
13.2734
10.3782
7.80324
5.65822
3.92431
2.50529
1.43019
75.7272
67.7596
62.4896
57.4454
52.5326
47.6013
42.5838
37.5537
32.6861
28.04
23.6773
19.7139
16.1641
12.9269
9.96646
7.38529
5.26234
3.55836
2.3186
1.86881
77.1398
68.2119
62.6295
57.4987
52.5687
47.5978
42.5411
37.4565
32.5461
27.9203
23.5748
19.5146
15.7732
12.3623
9.32109
6.71817
4.56316
2.86703
1.96852
2.47406
77.8286
68.1904
62.5429
57.47
52.586
47.6269
42.5738
37.5048
32.5937
27.9319
23.5053
19.2757
15.29
11.6426
8.4411
5.73752
3.54441
1.98634
1.64973
3.23084
78.1795
67.9735
62.3144
57.2708
52.3836
47.3724
42.2801
37.2706
32.4407
27.7557
23.1939
18.7369
14.4614
10.505
7.01345
4.05658
1.74121
0.319018
0.585599
3.51057
78.2686
67.4588
61.7738
56.8002
51.9869
47.0141
41.9463
37.0561
32.3709
27.6741
22.9305
18.2152
13.6471
9.31584
5.33871
1.84952
-0.878302
-2.43644
-1.60687
3.22108
77.86
66.5537
60.9395
56.0394
51.2913
46.4776
41.5759
36.8695
32.3121
27.5611
22.6118
17.6763
12.8526
8.05176
3.3492
-0.976039
-4.51989
-6.7455
-5.67381
1.75381
76.6865
65.4956
60.15
55.5493
50.9305
46.3205
41.6737
37.1607
32.6455
27.7869
22.6759
17.6106
12.5328
7.14415
1.60934
-3.68607
-8.56671
-12.5592
-12.7586
-3.17096
74.9723
69.9078
65.722
61.6879
57.3722
52.9636
48.558
44.1596
39.5898
34.6393
29.4867
24.3532
18.9775
13.0675
6.94924
0.721655
-6.00577
-12.9428
-17.4107
-9.59987
74.2874
109.212
110.348
107.125
103.072
98.7716
94.4649
90.0559
85.4037
80.4567
75.3693
70.1608
64.5782
58.5883
52.2977
45.5361
37.9575
29.0747
20.6189
23.6482
73.2953
67.0324
62.2211
57.3176
52.4826
47.6193
42.7166
37.7918
32.9809
28.357
23.9711
19.9894
16.4846
13.3415
10.454
7.87767
5.71811
3.96183
2.52158
1.4335
75.5982
67.6423
62.3861
57.3593
52.4726
47.5743
42.5903
37.585
32.7309
28.0909
23.7261
19.7559
16.2054
12.9771
10.0255
7.4425
5.30504
3.58074
2.3243
1.8679
77.0172
68.0984
62.5267
57.4124
52.5088
47.5699
42.5419
37.4743
32.5694
27.942
23.5897
19.5226
15.7811
12.3768
9.34083
6.73485
4.56891
2.86085
1.95722
2.46789
77.6944
68.0588
62.4199
57.3651
52.508
47.5778
42.5463
37.4844
32.5691
27.8997
23.4673
19.2368
15.2562
11.6153
8.41596
5.70911
3.51147
1.95398
1.62713
3.22399
78.0171
67.8159
62.1681
57.1454
52.2842
47.2967
42.2168
37.2035
32.361
27.6678
23.1084
18.663
14.4011
10.4514
6.95787
3.99684
1.68337
0.273744
0.561846
3.5069
78.0945
67.2965
61.6278
56.6765
51.8858
46.9291
41.8628
36.9594
32.2587
27.56
22.8308
18.1379
13.5874
9.25918
5.27412
1.77839
-0.944461
-2.48421
-1.62945
3.21775
77.7069
66.4187
60.8236
55.9434
51.2112
46.4033
41.4934
36.7697
32.2017
27.4597
22.5338
17.622
12.81
8.00435
3.2878
-1.04726
-4.58759
-6.7965
-5.70284
1.74394
76.5782
65.4065
60.0784
55.4916
50.8789
46.2646
41.6045
37.0785
32.5634
27.7248
22.6399
17.5904
12.5125
7.10998
1.55624
-3.75205
-8.63275
-12.6138
-12.7956
-3.18615
74.9086
69.8612
65.6893
61.6621
57.3437
52.9251
48.5088
44.1078
39.5482
34.6217
29.4922
24.3664
18.9814
13.0516
6.91255
0.67165
-6.05841
-12.989
-17.4423
-9.61019
74.252
109.185
110.332
107.11
103.051
98.7398
94.4282
90.0253
85.3853
80.4562
75.3841
70.1775
64.5822
58.5723
52.2637
45.4912
37.9094
29.0302
20.5871
23.6364
73.1589
66.9043
62.1047
57.2185
52.4071
47.5718
42.697
37.7975
33.0031
28.3897
24.0118
20.0312
16.5242
13.3841
10.5025
7.92415
5.74978
3.97217
2.51604
1.42676
75.4738
67.5261
62.2792
57.2683
52.4053
47.5349
42.5807
37.5985
32.758
28.1303
23.7733
19.8015
16.248
13.0226
10.0744
7.48492
5.32909
3.58316
2.31401
1.86037
76.9084
67.9866
62.4193
57.3196
52.4398
47.53
42.5304
37.4829
32.5905
27.9745
23.6303
19.5637
15.8191
12.4125
9.37322
6.75883
4.5798
2.86029
1.95332
2.46746
77.5662
67.9253
62.2904
57.251
52.4177
47.5145
42.5076
37.462
32.5557
27.8957
23.4726
19.2468
15.266
11.6211
8.41555
5.70287
3.50289
1.94916
1.63048
3.2304
77.8627
67.6618
62.0207
57.0126
52.17
47.202
42.1388
37.1336
32.2932
27.6056
23.0557
18.6193
14.3616
10.4083
6.90754
3.94402
1.63877
0.246733
0.553414
3.50738
77.9373
67.146
61.4854
56.5426
51.7603
46.8113
41.7501
36.8453
32.1405
27.4459
22.7266
18.0429
13.4953
9.16031
5.16514
1.66827
-1.04041
-2.55502
-1.67372
3.19841
77.5787
66.3005
60.7109
55.8301
51.0945
46.2825
41.3678
36.639
32.0683
27.3358
22.4212
17.5123
12.6928
7.87138
3.14023
-1.19705
-4.72381
-6.90852
-5.78405
1.70695
76.4984
65.335
60.0083
55.4143
50.7902
46.1649
41.4975
36.9717
32.463
27.6425
22.5703
17.5149
12.4162
6.9886
1.41646
-3.8972
-8.771
-12.7355
-12.886
-3.22234
74.8701
69.829
65.6592
61.624
57.2922
52.8613
48.4416
44.0519
39.5064
34.5986
29.4771
24.3383
18.926
12.9687
6.81096
0.561121
-6.1715
-13.0958
-17.5219
-9.64027
74.2343
109.168
110.315
107.086
103.014
98.6925
94.382
90.0017
85.3817
80.4645
75.3901
70.1643
64.5412
58.507
52.1828
45.3994
37.8082
28.9285
20.5092
23.6035
73.0078
66.7643
61.9774
57.1077
52.3166
47.503
42.6453
37.7633
32.9806
28.3771
24.013
20.0397
16.5309
13.3891
10.5083
7.92495
5.73527
3.94
2.47859
1.40616
75.3406
67.3958
62.157
57.1625
52.3202
47.4685
42.5345
37.5694
32.7392
28.1273
23.7897
19.827
16.2728
13.0459
10.0952
7.49502
5.31963
3.55604
2.28507
1.84819
76.7738
67.849
62.2892
57.2065
52.3479
47.461
42.4848
37.4584
32.5839
27.9919
23.6756
19.6273
15.8867
12.4746
9.42542
6.79807
4.60513
2.87618
1.96769
2.47958
77.4167
67.7749
62.1476
57.1245
52.3118
47.4295
42.4454
37.4237
32.54
27.9078
23.515
19.3099
15.3338
11.6806
8.4625
5.74053
3.53702
1.9838
1.6635
3.24882
77.705
67.5059
61.8692
56.8698
52.0368
47.0786
42.0314
37.0469
32.2265
27.5621
23.033
18.6077
14.3492
10.3855
6.87397
3.90834
1.61083
0.229715
0.542684
3.49944
77.7882
66.9958
61.331
56.3822
51.5922
46.6388
41.5846
36.6967
32.0085
27.3321
22.6205
17.9308
13.3694
9.01894
5.01503
1.52239
-1.17092
-2.6654
-1.75869
3.15794
77.4543
66.1725
60.5708
55.6717
50.9167
46.0925
41.1808
36.4716
31.9198
27.2066
22.2923
17.3612
12.5122
7.66787
2.92822
-1.40348
-4.9162
-7.07887
-5.91031
1.65963
76.4166
65.2485
59.9099
55.2966
50.6521
46.0154
41.3528
36.8534
32.3668
27.5651
22.4878
17.4001
12.2622
6.80798
1.22593
-4.0895
-8.96364
-12.9163
-13.0169
-3.26452
74.8275
69.7866
65.6134
61.5648
57.2164
52.776
48.3624
44.0056
39.4835
34.5848
29.4476
24.2708
18.8199
12.8387
6.66829
0.402349
-6.35243
-13.282
-17.6635
-9.69419
74.2118
109.143
110.29
107.051
102.966
98.6338
94.3236
89.9796
85.3927
80.4843
75.39
70.1277
64.472
58.4187
52.0784
45.2667
37.6398
28.7479
20.3738
23.5559
72.8449
66.6061
61.8294
56.9763
52.2024
47.4056
42.5547
37.6811
32.9052
28.31
23.9639
20.0032
16.4919
13.3424
10.4565
7.86692
5.66703
3.86623
2.41773
1.37998
75.1808
67.236
62.0069
57.0311
52.2096
47.3683
42.4422
37.4868
32.6627
28.0666
23.7553
19.8098
16.2573
13.0251
10.0676
7.45655
5.26802
3.50091
2.24727
1.83981
76.6093
67.6899
62.1475
57.0853
52.2445
47.3688
42.4016
37.3896
32.5322
27.9669
23.6879
19.6712
15.9437
12.5278
9.46638
6.82439
4.61934
2.88665
1.98298
2.49394
77.2587
67.6274
62.0158
57.0071
52.2052
47.3269
42.3494
37.3475
32.4906
27.8923
23.5364
19.3604
15.3961
11.7374
8.50613
5.77173
3.5596
2.00067
1.67376
3.25001
77.5556
67.3643
61.7322
56.7326
51.8947
46.929
41.8863
36.9278
32.1412
27.5112
23.0035
18.5844
14.3219
10.3488
6.82878
3.85904
1.55989
0.176943
0.491802
3.47013
77.6446
66.8486
61.1735
56.2086
51.3998
46.4326
41.3852
36.5331
31.8858
27.2447
22.5379
17.8266
13.2402
8.87558
4.86965
1.38072
-1.30894
-2.79498
-1.85646
3.12606
77.3141
66.0269
60.4106
55.4899
50.713
45.8772
40.9762
36.3116
31.8026
27.1214
22.1992
17.2274
12.3398
7.47983
2.74152
-1.58865
-5.10429
-7.25446
-6.02752
1.63511
76.3072
65.1401
59.7952
55.164
50.499
45.8539
41.2027
36.748
32.2954
27.5086
22.4074
17.2695
12.0921
6.62484
1.03843
-4.29652
-9.20066
-13.1555
-13.1929
-3.32894
74.7615
69.729
65.5561
61.4912
57.1238
52.6752
48.2725
43.9585
39.4657
34.5657
29.3918
24.1656
18.6835
12.6911
6.49975
0.180794
-6.63912
-13.5938
-17.917
-9.80417
74.1699
109.102
110.245
106.987
102.888
98.5531
94.2436
89.9225
85.355
80.4388
75.3092
70.0084
64.3323
58.266
51.8873
45.001
37.297
28.3794
20.071
23.4236
72.6413
66.4038
61.6403
56.8119
52.0556
47.2767
42.4312
37.5647
32.7967
28.2135
23.8915
19.9482
16.4332
13.2696
10.3737
7.7805
5.58355
3.79859
2.38214
1.37525
74.9742
67.0346
61.8229
56.8701
52.0704
47.2394
42.3163
37.3675
32.5503
27.9715
23.6892
19.764
16.2122
12.9703
10.003
7.38542
5.19902
3.45228
2.23442
1.84767
76.4259
67.5221
62.005
56.9576
52.1258
47.25
42.2756
37.2671
32.4212
27.8754
23.6263
19.6391
15.9264
12.5081
9.43432
6.77916
4.56964
2.84766
1.9628
2.48443
77.1185
67.5031
61.9037
56.8918
52.0827
47.19
42.1995
37.2074
32.3754
27.8047
23.4725
19.315
15.3605
11.6996
8.45634
5.70651
3.48282
1.92189
1.6048
3.21072
77.4362
67.2506
61.6149
56.5989
51.7439
46.7628
41.7189
36.7911
32.0516
27.4634
22.9681
18.541
14.2694
10.2915
6.7658
3.7855
1.47373
0.0870304
0.423967
3.45442
77.5236
66.7229
61.0376
56.0548
51.2309
46.2586
41.2267
36.4246
31.8361
27.243
22.5369
17.7938
13.183
8.81489
4.81121
1.31422
-1.3901
-2.87342
-1.88952
3.15173
77.179
65.8945
60.2748
55.3395
50.5474
45.7089
40.8247
36.2078
31.7425
27.0889
22.1473
17.1297
12.216
7.35826
2.62097
-1.73187
-5.27891
-7.42996
-6.14849
1.59521
76.1888
65.034
59.6879
55.0353
50.3472
45.6938
41.0629
36.6473
32.2161
27.4232
22.2789
17.0924
11.8982
6.43419
0.825591
-4.57394
-9.54923
-13.5322
-13.5267
-3.51252
74.6719
69.6482
65.4687
61.3791
56.9997
52.5447
48.1715
43.8948
39.4141
34.49
29.2664
24.0033
18.5157
12.514
6.25952
-0.173923
-7.10557
-14.1244
-18.425
-10.0873
74.0859
109.018
110.154
106.883
102.802
98.4876
94.2008
89.8942
85.3193
80.3688
75.1965
69.8751
64.1981
58.1031
51.631
44.6141
36.8002
27.8129
19.5053
23.0806
72.3632
66.143
61.4135
56.632
51.9016
47.1443
42.3115
37.4613
32.7109
28.151
23.8641
19.9458
16.4288
13.2478
10.3392
7.74813
5.57153
3.82483
2.44634
1.42915
74.7099
66.7939
61.6181
56.7001
51.9204
47.1009
42.1844
37.2481
32.4459
27.8903
23.6394
19.7351
16.1829
12.9279
9.94873
7.33209
5.16897
3.46689
2.28713
1.88625
76.222
67.3373
61.8524
56.809
51.9656
47.0754
42.0834
37.0745
32.2387
27.7033
23.467
19.4944
15.7895
12.3661
9.27906
6.61614
4.41914
2.73131
1.88637
2.44659
76.9858
67.3778
61.7864
56.7487
51.9087
46.9907
41.9835
37.0045
32.2052
27.6598
23.3325
19.1734
15.2194
11.5544
8.29754
5.5324
3.30583
1.76463
1.50103
3.19328
77.3324
67.1432
61.5106
56.4707
51.5941
46.6085
41.5771
36.6912
32.0123
27.4725
22.9813
18.5356
14.2543
10.2755
6.74224
3.7452
1.4204
0.0465578
0.448511
3.54643
77.4221
66.6224
60.9527
55.9563
51.1154
46.1461
41.1385
36.379
31.8373
27.2784
22.5609
17.7869
13.167
8.80778
4.80088
1.27953
-1.45142
-2.93137
-1.88956
3.20195
77.0668
65.7953
60.1889
55.2264
50.3952
45.543
40.6848
36.0976
31.6442
26.982
22.0007
16.9489
12.0388
7.19571
2.43871
-1.96935
-5.57418
-7.75538
-6.44848
1.42876
76.0664
64.9226
59.5673
54.8733
50.1575
45.4965
40.9332
36.5675
32.1368
27.3045
22.1057
16.8971
11.7202
6.25353
0.575293
-4.9347
-10.0184
-14.1004
-14.1289
-3.86281
74.5151
69.526
65.3497
61.2484
56.9203
52.4795
48.1499
43.897
39.3973
34.4221
29.1545
23.8919
18.4211
12.3748
5.9915
-0.595395
-7.67917
-14.8947
-19.3465
-10.7297
73.8908
108.938
110.131
106.872
102.823
98.5651
94.3272
90.0305
85.4239
80.4233
75.2253
69.9181
64.2414
58.0632
51.4413
44.2852
36.3232
27.0729
18.5021
22.3036
71.9673
65.8286
61.1794
56.4759
51.788
47.0517
42.2331
37.4027
32.675
28.1469
23.9031
20.0157
16.5004
13.3029
10.3821
7.80027
5.65935
3.95976
2.59928
1.51956
74.3723
66.5108
61.404
56.5365
51.7723
46.9549
42.0415
37.1193
32.3369
27.8063
23.5841
19.6985
16.1449
12.8742
9.88255
7.27808
5.15956
3.50684
2.33622
1.89236
75.9631
67.0769
61.6239
56.5763
51.7055
46.7925
41.788
36.7924
31.9802
27.456
23.2193
19.2455
15.5371
12.1008
8.99899
6.34285
4.18154
2.5407
1.76219
2.40375
76.795
67.14
61.5552
56.4993