/*--------------------------------*- C++ -*----------------------------------*\
  =========                 |
  \\      /  F ield         | OpenFOAM: The Open Source CFD Toolbox
   \\    /   O peration     | Website:  https://openfoam.org
    \\  /    A nd           | Version:  8
     \\/     M anipulation  |
\*---------------------------------------------------------------------------*/
FoamFile
{
    version     2.0;
    format      ascii;
    class       surfaceScalarField;
    location    "0.005";
    object      phi;
}
// * * * * * * * * * * * * * * * * * * * * * * * * * * * * * * * * * * * * * //

dimensions      [1 0 -1 0 0 0 0];

internalField   nonuniform List<scalar> 
11200
(
0.570592
-0.0455093
-0.0221798
0.639924
-0.0365302
-0.0392557
0.672717
-0.00484213
-0.0193539
0.670146
0.00972686
-0.0181371
0.673871
0.0121948
-0.0193909
0.672224
0.0166371
-0.0177276
0.673567
0.0232099
-0.0109738
0.649909
0.0217026
-0.0126358
0.617969
0.0254528
-0.0130511
0.59313
0.0368477
-0.00664373
0.547325
0.0378147
-0.00489393
0.483424
0.0318507
-0.01009
0.427912
0.0341933
-0.0146941
0.385721
0.0451744
-0.0144923
0.341616
0.0548443
-0.0120137
0.287345
0.0567091
-0.0111617
0.231705
0.0501804
-0.0130902
0.192331
0.0357485
-0.0151331
0.199668
-0.00718919
-0.0113786
-0.0860027
-0.00394455
0.485703
-0.0177211
-0.0173153
0.454468
-0.00482229
-0.0209504
0.445004
0.00371382
-0.011326
0.432704
0.0134942
-0.0121344
0.436555
0.0193049
-0.00772952
0.437155
0.0204656
-0.00942748
0.431695
0.0195049
-0.0084756
0.420605
0.0230225
-0.00422715
0.40606
0.0274416
-0.00239623
0.381938
0.0273452
-0.00410805
0.347078
0.0260035
-0.00616156
0.31251
0.0334717
-0.00631884
0.283594
0.0501882
-0.00575809
0.255453
0.0666086
-0.00547371
0.220996
0.0758669
-0.00560025
0.17955
0.0776546
-0.00634278
0.138232
0.0735354
-0.00697378
0.1052
0.0611885
-0.00479478
0.0790797
0.0160686
0.00501743
-0.0507944
0.0217062
0.492059
0.00593123
-0.0141251
0.458301
0.0421905
-0.0167244
0.438844
0.036522
-0.00501417
0.422747
0.038784
-0.005616
0.421903
0.0375159
-0.00477658
0.420403
0.0357629
-0.00518962
0.419537
0.0361632
-0.00230926
0.409733
0.0351723
0.000750521
0.391281
0.0338951
0.00242791
0.366809
0.0386785
0.00087767
0.341857
0.0477597
-0.000383511
0.317618
0.061387
0.000698477
0.289456
0.0798293
0.00142945
0.255303
0.0990487
0.00069649
0.214758
0.114658
-0.000553887
0.169056
0.124514
-0.00157994
0.122142
0.126521
-0.00081085
0.0753615
0.113419
0.00466402
0.0214478
0.0562338
0.0207455
-0.0261831
0.0440082
0.496909
0.0234053
-0.0127253
0.462122
0.0771845
-0.0136124
0.439214
0.0615227
-0.00333247
0.419462
0.0564462
-0.00601627
0.418175
0.0509416
-0.00504253
0.418838
0.046537
-0.00367981
0.416589
0.0466238
-0.00294388
0.406545
0.0458261
-0.00259067
0.394226
0.0436057
0.00108293
0.374156
0.0487361
0.000718997
0.353856
0.0598918
-0.00128926
0.334534
0.0759702
-0.000607969
0.307279
0.0979881
0.000314654
0.269683
0.124486
-0.000446892
0.223592
0.151885
-0.00210252
0.170338
0.176073
-0.00323739
0.109755
0.190753
-0.0015784
0.0378271
0.182015
0.0054164
-0.049704
0.11222
0.0251826
0.00182828
0.0574444
0.496107
0.0391306
-0.0121895
0.459056
0.10991
-0.0127127
0.434187
0.0845934
-0.004465
0.413736
0.0753804
-0.00803701
0.413586
0.0709512
-0.00720912
0.418748
0.0638096
-0.000563584
0.415616
0.059205
0.000739244
0.404155
0.0553707
-0.00219268
0.39919
0.0508252
0.00104762
0.385152
0.053222
0.000851624
0.369783
0.0645664
-0.0015916
0.356407
0.0842662
-0.000945728
0.333642
0.11221
0.000477808
0.296963
0.148304
5.13776e-05
0.247686
0.191226
-0.00183236
0.185037
0.237084
-0.00355149
0.102446
0.276562
-0.00300683
-0.010559
0.288969
0.00292348
-0.150853
0.221277
0.0274984
0.0731946
0.0748917
0.490625
0.0540222
-0.0147132
0.448397
0.147557
-0.0185142
0.425807
0.116734
-0.00675433
0.409728
0.0968805
-0.00498962
0.406887
0.0885854
-0.00983412
0.4146
0.0766665
-0.00160437
0.412237
0.0631084
0.00114508
0.400051
0.0527186
-0.0039117
0.402027
0.0468994
-0.00248494
0.396927
0.0483888
-0.00270715
0.3899
0.0608672
-0.00440761
0.384758
0.0840304
-0.0033657
0.370122
0.116808
-0.0019468
0.340236
0.161801
-0.00238656
0.293849
0.222588
-0.0042674
0.224864
0.299175
-0.00630155
0.116755
0.385048
-0.00710566
-0.05427
0.458488
-0.00184156
-0.294249
0.437476
0.028609
0.247369
0.0869373
0.487046
0.082997
-0.0155566
0.437299
0.210709
-0.0201046
0.410324
0.164701
-0.00809187
0.40518
0.119903
0.00494776
0.398685
0.0926401
-0.000951905
0.40483
0.077315
0.00232635
0.405629
0.0595224
0.00514329
0.397922
0.0465259
-0.000155088
0.407258
0.0435801
-0.000805181
0.41315
0.0475235
-0.0011969
0.416793
0.0615272
-0.0019028
0.421262
0.0855527
-0.0012199
0.418762
0.119562
-0.00123565
0.404466
0.170454
-0.00253388
0.373531
0.247647
-0.00488986
0.313386
0.358629
-0.00876907
0.19383
0.511633
-0.013948
-0.0474197
0.707824
-0.0141353
-0.496161
0.864393
0.0113235
0.833563
0.0649036
0.486993
0.113384
-0.0144053
0.435988
0.267885
-0.0190363
0.393043
0.202909
-0.0196732
0.40519
0.155081
-0.00125364
0.410618
0.110017
0.00680628
0.41465
0.0828917
0.00808618
0.420464
0.0571428
0.0120119
0.422609
0.0398131
0.00945667
0.439718
0.0372228
0.0086588
0.456419
0.0418792
0.00885881
0.470674
0.0548971
0.00885704
0.485775
0.0762219
0.00803258
0.500553
0.107895
0.00557599
0.512448
0.160181
0.00312191
0.514302
0.246092
-0.000818339
0.493602
0.383042
-0.0102503
0.412857
0.611436
-0.0263029
0.145474
1.01279
-0.045699
-0.64671
1.68404
-0.0537075
3.05257
-0.047056
0.485084
0.143457
-0.00703916
0.541206
0.179205
0.0631736
0.507475
0.0291599
0.0423845
0.529737
-0.0244288
0.0419786
0.558958
-0.0215683
0.0498284
0.566417
-0.0130641
0.0474866
0.584725
-0.0073941
0.0496987
0.605206
-0.00443085
0.0483375
0.638383
0.0043629
0.047874
0.672289
0.011651
0.0488977
0.70261
0.0207279
0.0490415
0.736556
0.0352739
0.0459194
0.782152
0.0598045
0.0411655
0.838957
0.10433
0.0388853
0.901892
0.178623
0.032763
0.980364
0.303002
0.0132122
1.07171
0.551899
-0.0194119
1.04171
1.14378
-0.0722477
0.110305
2.8181
-0.172442
10.8964
-0.499786
0.658229
-0.0113905
1.09964
0.0489482
1.4391
0.0340181
1.61044
-0.0322837
1.70886
-0.0856314
1.72733
-0.122663
1.77882
-0.140235
1.84974
-0.148371
1.94815
-0.150105
2.05373
-0.148265
2.15397
-0.150216
2.272
-0.160988
2.44044
-0.168653
2.6576
-0.168715
2.92404
-0.193485
3.35062
-0.250311
4.15342
-0.315389
5.72282
-0.473012
9.43536
-0.937843
-3.70819
0.524025
-0.0398837
-0.00866183
0.550649
-0.0501732
-0.0211417
0.562206
-0.0277999
-0.0167847
0.558058
-0.0171539
-0.0150483
0.56385
-0.00897185
-0.0127855
0.56711
-0.00838255
-0.0110942
0.560575
-0.00682807
-0.0122527
0.541966
-0.00193312
-0.0114838
0.52152
0.00374967
-0.0099148
0.496555
0.00666507
-0.00933597
0.452012
0.00377222
-0.00944622
0.399225
0.00245592
-0.0099843
0.357273
0.00869742
-0.0105979
0.324136
0.0183699
-0.0109295
0.285848
0.0246687
-0.0110052
0.237994
0.0247609
-0.0113102
0.191127
0.0198614
-0.0115462
0.161623
0.0114081
-0.00994181
0.178646
-0.0175077
-0.00612983
-0.0900307
-0.00108823
0.467197
-0.0145195
-0.00599383
0.419546
-0.0286378
-0.0152543
0.404806
-0.0183588
-0.0100722
0.399096
-0.00925847
-0.00805707
0.39685
-0.00727524
-0.0090616
0.399935
-0.00501439
-0.00727207
0.398098
-0.00399236
-0.00546332
0.385668
-0.00179179
-0.00336416
0.36901
0.00216992
-0.00263348
0.346666
0.00218699
-0.00294818
0.316656
0.00166411
-0.00311054
0.285789
0.00971878
-0.00337245
0.259131
0.0252436
-0.00396791
0.233052
0.0393333
-0.00444919
0.201012
0.0467336
-0.0046514
0.163263
0.0480742
-0.00503075
0.127906
0.0456254
-0.00502137
0.102789
0.0375323
-0.00272659
0.0982356
0.00244155
0.00217132
-0.069904
0.00699085
0.472268
0.00616179
-0.00512287
0.428946
0.0129276
-0.0108847
0.40375
0.00732859
-0.00693171
0.390912
0.00742782
-0.00589914
0.389009
0.00637853
-0.00606938
0.390795
0.00646396
-0.00366595
0.390169
0.0047807
-0.00180643
0.379793
0.00127233
0.000843973
0.359664
0.00201964
0.00091785
0.337354
0.00757399
-0.000407548
0.316572
0.0152392
-0.000652115
0.293863
0.0274459
-0.000540202
0.266464
0.0446691
-0.00111103
0.234444
0.0623926
-0.00188727
0.197235
0.0764165
-0.00231621
0.156735
0.0854126
-0.00225652
0.117439
0.0881261
-0.000891184
0.0809733
0.077546
0.00290167
0.0583548
0.0285116
0.00879731
-0.0574854
0.01415
0.476726
0.0218687
-0.0043996
0.431693
0.0425367
-0.00963747
0.402723
0.0276777
-0.00713319
0.388635
0.0222037
-0.0064812
0.387902
0.0169695
-0.00567416
0.387923
0.0179723
-0.00512096
0.385477
0.0185973
-0.00516378
0.379381
0.0147029
-0.00248894
0.364113
0.0122349
-0.00251436
0.343979
0.0171394
-0.00448874
0.327796
0.0270349
-0.00497156
0.310164
0.0418665
-0.00455322
0.283349
0.062705
-0.00489217
0.247732
0.0875252
-0.00582806
0.205618
0.112637
-0.00666487
0.159006
0.13444
-0.00655861
0.107371
0.146957
-0.00469405
0.0479222
0.138004
-0.000236559
0.00628178
0.0788154
0.00694327
-0.0270799
0.0164671
0.475711
0.0337815
-0.00479721
0.426977
0.065818
-0.0118711
0.397266
0.047856
-0.0102199
0.383247
0.0445973
-0.00963283
0.388781
0.0350576
-0.00408639
0.388431
0.0299718
-0.00406814
0.381468
0.0271038
-0.0046363
0.376801
0.0215213
-0.00215885
0.368909
0.015576
-0.00274997
0.35377
0.0177664
-0.00520931
0.342527
0.0289671
-0.00561407
0.330907
0.0475553
-0.00479236
0.308081
0.0733785
-0.00498581
0.272766
0.106727
-0.0062088
0.227358
0.146404
-0.00759194
0.171522
0.188492
-0.00783924
0.0993309
0.223719
-0.00680794
0.0056303
0.234855
-0.00265819
-0.0685652
0.179717
0.00792033
0.0361003
0.0238433
0.470848
0.0495078
-0.00557079
0.420171
0.103902
-0.0105143
0.394389
0.0783752
-0.00786327
0.373833
0.0710526
-0.0122911
0.383848
0.0624402
-0.00402344
0.385721
0.0466681
-0.00491941
0.376041
0.034219
-0.00558638
0.371009
0.0244455
-0.00358724
0.371251
0.0170877
-0.00475263
0.365119
0.0182998
-0.00702373
0.36126
0.030762
-0.00684976
0.356871
0.0517598
-0.0059103
0.341563
0.0805878
-0.00664199
0.312564
0.121236
-0.00856872
0.26955
0.176817
-0.0107497
0.206887
0.245655
-0.0122218
0.111585
0.320672
-0.0135935
-0.0312973
0.383638
-0.0105513
-0.187068
0.362963
0.00243209
0.167865
0.0227851
0.46679
0.0787828
-0.00778933
0.408417
0.16206
-0.00531617
0.389023
0.111383
-0.00219831
0.366744
0.0754584
-0.00793973
0.369638
0.0640206
-0.000975737
0.374853
0.0481424
-0.002551
0.367815
0.0329315
-0.0032569
0.365183
0.0239775
-0.00229374
0.374013
0.0212082
-0.00404725
0.379129
0.025343
-0.00570769
0.383807
0.0386988
-0.00503767
0.387247
0.0590046
-0.00487376
0.38372
0.0875131
-0.00696185
0.369564
0.132549
-0.00962384
0.339658
0.201035
-0.0126558
0.282996
0.296492
-0.0167258
0.176405
0.425141
-0.0231541
-0.0317585
0.585371
-0.0257984
-0.370334
0.69966
-0.0186933
0.608999
0.0061521
0.458817
0.112531
-0.0183538
0.384341
0.268085
-0.0160471
0.36705
0.196919
-0.00170331
0.368561
0.136873
0.00196727
0.367063
0.0967989
0.00756137
0.373155
0.0709582
0.00549087
0.372229
0.0470088
0.00440609
0.375796
0.0342357
0.00386868
0.391981
0.032569
0.0013586
0.406672
0.0370426
0.000212161
0.418598
0.0480119
0.000748513
0.430515
0.0642198
-0.00080529
0.443684
0.0895256
-0.0044454
0.452881
0.133965
-0.00742267
0.449341
0.205012
-0.0123622
0.424474
0.31394
-0.0227804
0.347506
0.495896
-0.0398852
0.106848
0.809323
-0.0575186
-0.506925
1.29537
-0.0678422
2.06402
-0.0459718
0.466986
0.133877
-0.0304938
0.412791
0.310581
-0.0651564
0.402648
0.225854
-0.0298798
0.427574
0.149879
-0.0140289
0.441752
0.108847
0.000215769
0.451706
0.0978734
0.00620401
0.463079
0.0884047
0.0105959
0.480137
0.0881797
0.0119086
0.507797
0.0943696
0.0101651
0.53394
0.0990509
0.00998399
0.555124
0.104328
0.00982614
0.580634
0.113943
0.00577649
0.619027
0.135282
0.000905712
0.660727
0.171464
-0.00228795
0.698772
0.221633
-0.0129677
0.7491
0.312172
-0.0366724
0.800026
0.510314
-0.070072
0.710931
0.938774
-0.11517
-0.047466
2.05172
-0.176298
6.81825
-0.247767
0.585661
-0.0336706
0.770451
-0.155665
0.964904
-0.0408307
1.09625
-0.00499474
1.17934
0.0133619
1.20853
0.0202985
1.25282
0.0237452
1.30834
0.0206141
1.38099
0.0165305
1.45261
0.0166042
1.51627
0.0129513
1.60242
0.00227771
1.72799
-0.00612564
1.86127
-0.0181518
2.02322
-0.0569568
2.3171
-0.121308
2.79695
-0.225497
3.59057
-0.38482
5.33114
-0.659276
-1.31134
0.529577
-0.0374694
-0.00515771
0.556175
-0.0480207
-0.0142397
0.565523
-0.0233416
-0.0125459
0.561945
-0.0117302
-0.0120348
0.567189
-0.00666572
-0.0109116
0.567604
-0.00534983
-0.0109337
0.56298
-0.000604598
-0.0109599
0.545119
0.00620313
-0.00972299
0.523621
0.0114596
-0.00762178
0.497893
0.0135135
-0.0063592
0.452792
0.0105035
-0.00685899
0.399776
0.00932278
-0.00840241
0.357983
0.0153979
-0.00973508
0.325006
0.0248187
-0.0101725
0.286376
0.0309686
-0.00998653
0.238447
0.0308617
-0.010184
0.193226
0.0261497
-0.0108994
0.165264
0.019064
-0.0103866
0.180989
-0.00722022
-0.00656028
-0.078173
-0.00219498
0.468828
-0.0134825
-0.0044831
0.42716
-0.0227198
-0.00909975
0.409945
-0.0136274
-0.00798796
0.401265
-0.0054436
-0.00769736
0.40182
-0.00262858
-0.00684983
0.404951
0.000319842
-0.00567994
0.403391
0.00144764
-0.00341031
0.389487
0.00428067
-0.00190257
0.371647
0.00762712
-0.00159913
0.349277
0.00660851
-0.00179373
0.318927
0.0059934
-0.00227461
0.287478
0.0144916
-0.00312285
0.260721
0.0301612
-0.00400936
0.234714
0.044061
-0.00433939
0.202239
0.0512898
-0.00413363
0.164575
0.0530789
-0.00396737
0.131182
0.0519872
-0.00385704
0.107927
0.0454021
-0.00328329
0.0992066
0.0111798
-0.000209139
-0.0618996
0.00237758
0.475567
0.00705368
-0.00438839
0.435916
0.016161
-0.00841995
0.408427
0.00902292
-0.00759158
0.394383
0.00870336
-0.00690551
0.395065
0.00861819
-0.00607823
0.396324
0.00684834
-0.00512782
0.396487
0.00324024
-0.00268516
0.383425
-0.000269054
-0.00170084
0.361702
0.000385643
-0.00247341
0.340268
0.0053358
-0.00316723
0.31965
0.0128333
-0.00335148
0.296042
0.0254645
-0.00383352
0.268181
0.0430828
-0.00473862
0.236209
0.0608117
-0.00535746
0.199142
0.0745569
-0.00545259
0.159569
0.0836853
-0.0048398
0.122276
0.0869305
-0.00305735
0.0867549
0.0769303
-0.000749065
0.0564135
0.0287775
0.00259975
-0.0548966
0.00428266
0.479707
0.02164
-0.00440833
0.437321
0.0424904
-0.00829945
0.407101
0.0266603
-0.00778943
0.393162
0.0210361
-0.00699711
0.392185
0.0205062
-0.00813496
0.391609
0.0209799
-0.00836002
0.391871
0.0210827
-0.00605583
0.383004
0.0169532
-0.00517072
0.365631
0.0138929
-0.00641864
0.346801
0.0183568
-0.00747945
0.331368
0.0284259
-0.00752097
0.312806
0.0438058
-0.00766593
0.285133
0.0649912
-0.00847904
0.249273
0.0897617
-0.00934263
0.207701
0.114567
-0.00981716
0.1624
0.136224
-0.00902239
0.112771
0.148025
-0.00684946
0.0542472
0.138686
-0.00464007
0.00490122
0.0824342
-0.00073966
-0.0188931
0.0029196
0.477799
0.0331767
-0.00413588
0.431632
0.0695396
-0.00946507
0.401527
0.0524954
-0.00803854
0.392498
0.0441442
-0.00388761
0.392549
0.0372374
-0.0054264
0.391608
0.0311829
-0.0051966
0.387639
0.028188
-0.00251287
0.379843
0.0220702
-0.00218278
0.369998
0.0154909
-0.00428541
0.356778
0.0178924
-0.00566837
0.346659
0.0297827
-0.0053803
0.333906
0.0486682
-0.00517479
0.309825
0.0741996
-0.0061267
0.274009
0.107163
-0.00759479
0.229303
0.146422
-0.00889226
0.174203
0.187685
-0.00869366
0.104312
0.220839
-0.00753794
0.0145237
0.230988
-0.00616902
-0.0679085
0.177928
-0.000171609
0.037069
0.00595927
0.475204
0.0474579
-0.00363515
0.425831
0.111757
-0.0121919
0.393577
0.0866298
-0.00852725
0.38572
0.0779296
-0.00311982
0.386642
0.0678898
-0.00527034
0.388766
0.051289
-0.00423396
0.381672
0.0386849
-0.00128515
0.373412
0.0277714
-0.00175587
0.372545
0.0197586
-0.00459907
0.36881
0.0216037
-0.00585152
0.365684
0.0346813
-0.00502732
0.359574
0.0550975
-0.00486826
0.342917
0.082843
-0.00653228
0.313383
0.123149
-0.00870081
0.270666
0.178415
-0.0105459
0.207488
0.245309
-0.0111127
0.115528
0.315979
-0.01152
-0.0208581
0.373868
-0.0109625
-0.186527
0.347445
-0.00373216
0.15576
0.00446995
0.478614
0.0683833
8.10713e-06
0.414562
0.154446
-0.0177182
0.386779
0.114644
-0.0114688
0.377173
0.0879103
-0.00737224
0.371532
0.0747727
-0.00958742
0.377672
0.0583254
-0.00678308
0.372244
0.0426359
-0.00363935
0.366858
0.0320906
-0.00465745
0.375866
0.0286132
-0.0073345
0.38337
0.0333493
-0.00765996
0.387585
0.0466632
-0.00639867
0.388794
0.065441
-0.00715122
0.384657
0.0927346
-0.0100572
0.369996
0.137937
-0.0125167
0.338765
0.205231
-0.0145509
0.279185
0.295381
-0.0166991
0.175176
0.414822
-0.0201379
-0.0278576
0.561787
-0.0229887
-0.36961
0.660383
-0.0183064
0.569919
-0.00470421
0.48169
0.100493
0.00578151
0.400863
0.227469
-0.00773925
0.373448
0.172516
-0.000536101
0.376984
0.122336
0.000428354
0.367791
0.0885057
-0.00381769
0.374921
0.070308
-0.00189085
0.374537
0.0514584
-0.00108146
0.376152
0.0404392
-0.00407527
0.393829
0.0400728
-0.00689721
0.410322
0.0457019
-0.0065402
0.420241
0.0559451
-0.00572448
0.430155
0.0703473
-0.00831372
0.44409
0.0955138
-0.0123233
0.451387
0.140601
-0.0144195
0.44232
0.207912
-0.017555
0.410532
0.307812
-0.0236688
0.332184
0.479888
-0.031849
0.0936498
0.774024
-0.0410755
-0.508164
1.22005
-0.0430657
1.91595
-0.0271422
0.486208
0.131644
0.00219588
0.447347
0.286877
-0.0129537
0.417771
0.219523
-0.0102123
0.441064
0.139649
-0.010724
0.446972
0.0854619
-0.0109122
0.455314
0.0683618
-0.00704354
0.463591
0.0532983
-0.00664817
0.477566
0.0485332
-0.00974171
0.506739
0.0550643
-0.0114295
0.53286
0.0600749
-0.0102722
0.55012
0.0630902
-0.0107554
0.574765
0.0727412
-0.015712
0.614767
0.0970373
-0.0202499
0.648915
0.130462
-0.0224626
0.673878
0.173177
-0.0301621
0.714406
0.262259
-0.0424229
0.753232
0.448311
-0.0548831
0.644421
0.845755
-0.0814032
-0.112136
1.86985
-0.103718
6.29449
-0.0914147
0.632907
-0.00734707
0.880048
-0.0827921
0.98643
-0.0782807
1.09816
-0.0635026
1.16866
-0.0453071
1.19395
-0.0358159
1.23104
-0.0382389
1.2848
-0.0441256
1.36049
-0.0455476
1.42734
-0.0443113
1.48308
-0.0495334
1.5702
-0.0611506
1.69031
-0.0694111
1.79502
-0.0810172
1.92919
-0.104218
2.17901
-0.125338
2.59553
-0.174283
3.24938
-0.254704
4.76843
-0.329994
-0.40507
0.531401
-0.0370504
-0.00222239
0.557904
-0.0465665
-0.00846817
0.566181
-0.0222281
-0.00857356
0.563229
-0.0107232
-0.00855944
0.567331
-0.00559439
-0.00917788
0.567742
-0.00284639
-0.00982963
0.56438
0.00466496
-0.00952829
0.547379
0.0122415
-0.00794209
0.525036
0.0160737
-0.00627381
0.497537
0.0168159
-0.00601089
0.451379
0.0136501
-0.00720044
0.398559
0.0127617
-0.00878851
0.357649
0.0189068
-0.00984786
0.325286
0.0283072
-0.00995885
0.286261
0.0345501
-0.00934277
0.2378
0.0348124
-0.00877349
0.193789
0.0308412
-0.00855637
0.169085
0.0240018
-0.00837996
0.186106
-0.00186444
-0.00672927
-0.0734489
-0.00336807
0.470494
-0.0133827
-0.0023264
0.428327
-0.0222097
-0.00669195
0.410546
-0.0134359
-0.00681994
0.402449
-0.00485013
-0.00678409
0.403331
-0.00203467
-0.00624934
0.407565
0.000722286
-0.00506416
0.405242
0.00208142
-0.00403429
0.390121
0.0044236
-0.0035076
0.371768
0.00669082
-0.00334548
0.349092
0.00516094
-0.00356839
0.318349
0.00483401
-0.00423454
0.286835
0.0136904
-0.00519061
0.260612
0.0293343
-0.0060085
0.235119
0.0429467
-0.006202
0.202577
0.0498826
-0.00592012
0.164825
0.0521296
-0.00551549
0.131863
0.0527327
-0.00451153
0.111061
0.0479105
-0.00311156
0.101599
0.0140024
-0.00147911
-0.0601582
8.00618e-05
0.477442
0.007039
-0.00263898
0.436843
0.016278
-0.00692644
0.409488
0.00878944
-0.00625883
0.39561
0.00856892
-0.00687264
0.396421
0.00651515
-0.00651164
0.399175
0.00356804
-0.00510458
0.397879
-0.000175805
-0.00431601
0.383045
-0.00378542
-0.00448786
0.361379
-0.00360847
-0.00485064
0.340433
0.000977239
-0.00505739
0.319496
0.00862503
-0.00544363
0.29544
0.0216058
-0.00629445
0.267837
0.0393322
-0.00722526
0.236356
0.0568327
-0.00756986
0.19996
0.0702119
-0.00738381
0.161516
0.0795339
-0.00651267
0.124707
0.0831785
-0.00422257
0.0901768
0.0730743
-0.00166468
0.0575243
0.0254244
-5.41582e-05
-0.0565909
0.000900506
0.481697
0.0219177
-0.00220048
0.437936
0.0413528
-0.00517498
0.408279
0.0264085
-0.00480166
0.392436
0.0241319
-0.00804072
0.392376
0.0231983
-0.00895269
0.394331
0.0241273
-0.0073286
0.393174
0.0246105
-0.00622255
0.382163
0.0199214
-0.00648465
0.364959
0.0160023
-0.00719844
0.347129
0.0201483
-0.00757936
0.331575
0.030558
-0.00781612
0.312325
0.046305
-0.00850207
0.284572
0.0673739
-0.00952494
0.249063
0.0915657
-0.0102895
0.208717
0.115574
-0.0107407
0.164746
0.136658
-0.00999566
0.115092
0.147454
-0.00733234
0.0581287
0.137264
-0.00485349
0.00793247
0.0830511
-0.00328052
-0.0161129
-0.00112406
0.478497
0.0336827
-0.00186304
0.433137
0.0668643
-0.0029487
0.406068
0.0520342
-0.00193293
0.391374
0.0449239
-0.00521041
0.393199
0.0373969
-0.00593248
0.394713
0.0321424
-0.00359212
0.388384
0.0294084
-0.00243028
0.378146
0.0224828
-0.00333807
0.369011
0.0151564
-0.00473826
0.357448
0.0176916
-0.00521904
0.347236
0.0301308
-0.00500764
0.333311
0.04899
-0.00536782
0.308688
0.0738368
-0.00658278
0.273004
0.106136
-0.00793835
0.229747
0.144889
-0.00918448
0.175545
0.185431
-0.00913257
0.105782
0.217056
-0.00732425
0.0204363
0.226406
-0.00563883
-0.0628593
0.174534
-0.00351898
0.0354587
-0.000618374
0.473118
0.0511065
-0.00290543
0.429519
0.106358
-0.000322733
0.399367
0.0837844
-0.000927724
0.383977
0.0737419
-0.00339569
0.388092
0.0636343
-0.00318108
0.392132
0.0487771
-0.000578992
0.381609
0.0363425
6.46913e-06
0.370967
0.0248727
-0.00198461
0.371691
0.0170285
-0.00415592
0.37003
0.0198063
-0.00452265
0.366234
0.0333309
-0.00379538
0.358294
0.0528578
-0.00425652
0.341114
0.079399
-0.00621247
0.311873
0.119466
-0.00817268
0.270389
0.174609
-0.0098019
0.207301
0.239997
-0.0104775
0.116191
0.307716
-0.00983089
-0.0138183
0.362267
-0.0085267
-0.179603
0.333288
-0.00570438
0.146785
-0.00133689
0.466357
0.0741619
-0.00543043
0.42069
0.164908
-0.00177909
0.39123
0.125873
-0.00588111
0.375346
0.0958939
-0.00680565
0.374727
0.0808214
-0.003999
0.381213
0.0633988
-0.000791718
0.371617
0.0452901
-0.00063536
0.364565
0.0328263
-0.0030167
0.375934
0.0292949
-0.00493844
0.385035
0.0347179
-0.0044932
0.387239
0.0475631
-0.00343309
0.386295
0.0645782
-0.00484201
0.3826
0.0909123
-0.00796741
0.368349
0.1366
-0.0100582
0.336971
0.202945
-0.011918
0.276035
0.289355
-0.0146823
0.172477
0.404368
-0.016951
-0.0235364
0.545325
-0.0171877
-0.356781
0.637481
-0.013294
0.549608
-0.00438006
0.466264
0.0969106
-0.00506475
0.408231
0.224411
-0.00057261
0.374725
0.164021
-0.00673746
0.373063
0.112283
-0.00578899
0.370041
0.0830938
-0.00142726
0.37606
0.0661602
0.00113902
0.371871
0.0467386
7.82137e-05
0.373659
0.0363492
-0.00293289
0.394532
0.0376777
-0.00449447
0.411498
0.0439379
-0.00343232
0.41802
0.0528266
-0.00287819
0.426521
0.065743
-0.00594161
0.442383
0.0914139
-0.00981545
0.448647
0.136918
-0.0114588
0.436591
0.200931
-0.0151939
0.402707
0.296848
-0.0233219
0.323217
0.46714
-0.0297577
0.0913166
0.748252
-0.0303454
-0.490437
1.17776
-0.0239926
1.87244
-0.0125827
0.473103
0.122203
0.00123766
0.450062
0.250322
0.00798309
0.417224
0.182833
-0.00164735
0.440843
0.114279
-0.000728179
0.450808
0.0730094
0.00346452
0.455677
0.055357
0.00458487
0.460465
0.0379205
0.00240208
0.475844
0.0347877
-0.000681377
0.50786
0.043429
-0.00143234
0.532339
0.047162
5.31865e-06
0.545124
0.0474724
-0.000799697
0.570186
0.0582188
-0.00578207
0.612511
0.085133
-0.00976969
0.64117
0.114604
-0.0122126
0.66157
0.155449
-0.0223673
0.701901
0.252404
-0.0380119
0.726719
0.427473
-0.0459645
0.6225
0.817935
-0.0508381
-0.0809966
1.83174
-0.049813
6.19986
-0.0342311
0.616094
0.00343803
0.888289
0.0084397
1.0002
-0.000375763
1.11478
0.00371373
1.17644
0.011904
1.18979
0.0139079
1.22336
0.00935745
1.2815
0.00451277
1.35974
0.00437994
1.42004
0.0055782
1.46931
7.83139e-05
1.55966
-0.0103496
1.67625
-0.0179813
1.76922
-0.0345578
1.90528
-0.068522
2.12695
-0.103972
2.51166
-0.132104
3.17307
-0.151795
4.80405
-0.156551
-0.134041
0.530639
-0.0372773
-0.00161245
0.557751
-0.0472465
-0.00445201
0.566203
-0.0231298
-0.00534203
0.562625
-0.0116113
-0.00659075
0.566694
-0.00531075
-0.00813707
0.568059
-0.000575676
-0.00909423
0.565982
0.00792223
-0.00860455
0.549062
0.0147812
-0.00725599
0.525313
0.0173855
-0.00649509
0.496361
0.0176342
-0.00697435
0.449804
0.0146792
-0.00814438
0.39751
0.0139919
-0.00924787
0.357548
0.020054
-0.00991478
0.325911
0.0293161
-0.00993346
0.286838
0.0353737
-0.00943735
0.238023
0.0356387
-0.00901378
0.193966
0.0326935
-0.00876556
0.170708
0.0273897
-0.00803164
0.190467
0.00206318
-0.00579145
-0.0706153
-0.00276639
0.469905
-0.013695
-0.00165701
0.428043
-0.0225806
-0.0043156
0.410595
-0.0130384
-0.00453621
0.403016
-0.00511401
-0.00438321
0.404551
-0.00246208
-0.00450059
0.40863
0.000548257
-0.00476315
0.405803
0.00168813
-0.00476109
0.390317
0.00333614
-0.00445057
0.371577
0.00507616
-0.00425742
0.348456
0.0035571
-0.00451158
0.31742
0.0034974
-0.00514677
0.286042
0.0124381
-0.00594556
0.260441
0.0279495
-0.00655278
0.235421
0.0414056
-0.00650948
0.202999
0.0482519
-0.00599478
0.165843
0.0509811
-0.0055791
0.13327
0.0529104
-0.00506254
0.112679
0.0492932
-0.00395751
0.103234
0.0153963
-0.00210783
-0.0593719
-0.000518277
0.477152
0.00747773
-0.00218514
0.437338
0.0180117
-0.00462446
0.408891
0.0102218
-0.00495241
0.396011
0.00736855
-0.00459673
0.397871
0.00404028
-0.00456615
0.400007
0.00131401
-0.0050411
0.39775
-0.00211016
-0.00539157
0.382724
-0.00581103
-0.00528658
0.361211
-0.00598658
-0.00508236
0.340084
-0.00157535
-0.00524412
0.31868
0.00622192
-0.00588527
0.294542
0.0193669
-0.00686448
0.267521
0.0370005
-0.00771097
0.236568
0.0540814
-0.00788051
0.200853
0.0668245
-0.00763926
0.163823
0.0760236
-0.00712134
0.127275
0.0800487
-0.00557685
0.091786
0.069871
-0.00303997
0.0584325
0.0221803
-0.000531723
-0.0586798
0.000710162
0.481874
0.0222554
-0.00116502
0.438186
0.0435742
-0.00229213
0.405059
0.0292675
-0.00489023
0.391565
0.0269502
-0.00576139
0.394045
0.0262059
-0.00554835
0.395482
0.0278516
-0.00555245
0.392956
0.028391
-0.00558699
0.381493
0.0230555
-0.00550473
0.364619
0.0184492
-0.00559245
0.346931
0.0224958
-0.00599125
0.330927
0.0333548
-0.00661899
0.311338
0.0494293
-0.00750693
0.28384
0.0703082
-0.0083856
0.24864
0.0939115
-0.00879854
0.209486
0.117127
-0.00907653
0.167427
0.13752
-0.00894291
0.117576
0.147463
-0.00748708
0.0596573
0.136479
-0.00516
0.0102403
0.0828066
-0.00259917
-0.0156598
-0.000450399
0.479659
0.0326406
0.000490331
0.434111
0.0694883
0.00065049
0.402821
0.0530335
-0.00298747
0.390694
0.0467321
-0.00409682
0.395585
0.0401408
-0.00323501
0.39592
0.0351464
-0.00267642
0.387521
0.0318353
-0.00267647
0.37679
0.0238261
-0.00309564
0.368572
0.0157285
-0.00376765
0.357701
0.0183782
-0.00425026
0.346915
0.0313345
-0.00442534
0.332135
0.0500951
-0.00495359
0.307368
0.0742043
-0.00596073
0.27179
0.105903
-0.00679738
0.229825
0.144279
-0.00757989
0.177372
0.184097
-0.00797597
0.10747
0.214564
-0.0073874
0.0224999
0.223533
-0.00598871
-0.059846
0.172358
-0.00346789
0.0347061
-0.000950188
0.477929
0.0485817
0.000684795
0.428931
0.104905
0.000395012
0.396934
0.0788408
-0.00228806
0.384233
0.0703467
-0.00305374
0.390739
0.0628241
-0.00194134
0.392763
0.0485589
-0.00144036
0.379662
0.0356924
-0.00190263
0.368838
0.0238396
-0.0032147
0.371367
0.0162521
-0.00457278
0.3708
0.019842
-0.00490281
0.365815
0.0336975
-0.00448241
0.356379
0.0522825
-0.00503878
0.339193
0.0776671
-0.00675956
0.310279
0.117616
-0.00797577
0.269744
0.172542
-0.00842876
0.20797
0.235855
-0.00856438
0.117496
0.30067
-0.0084353
-0.0110872
0.353686
-0.00756285
-0.175039
0.325771
-0.00527667
0.143768
-0.00209401
0.474524
0.0745278
-0.00135629
0.416501
0.166153
-0.00522173
0.390323
0.125229
-0.00549932
0.378193
0.0971236
-0.00532791
0.377976
0.0834827
-0.00378644
0.381413
0.0653182
-0.00356517
0.369277
0.0460055
-0.00462864
0.362684
0.0330027
-0.00653878
0.376422
0.0298907
-0.00792863
0.386139
0.0359057
-0.00757611
0.385873
0.0482184
-0.00675295
0.383213
0.0636567
-0.00815999
0.380552
0.0893646
-0.0109751
0.366531
0.135569
-0.0118163
0.334245
0.20014
-0.0110069
0.273795
0.281381
-0.0110084
0.172239
0.392388
-0.0118945
-0.0198224
0.533036
-0.0117671
-0.347244
0.627564
-0.00913802
0.54205
-0.00372588
0.474831
0.103213
-0.00459876
0.401994
0.232288
-0.0119253
0.375686
0.170176
-0.00851583
0.377459
0.118196
-0.00687246
0.372643
0.0878049
-0.00489957
0.375035
0.0689599
-0.00471925
0.368896
0.04879
-0.00618308
0.372133
0.0390607
-0.00837458
0.395632
0.0414899
-0.00939883
0.412092
0.0478303
-0.00840849
0.414996
0.055371
-0.00794169
0.422688
0.0673103
-0.0108279
0.440782
0.0938137
-0.0141287
0.444955
0.139001
-0.0135438
0.428505
0.198178
-0.0121712
0.396308
0.289338
-0.0142065
0.322641
0.459839
-0.0171589
0.0974733
0.737342
-0.0176361
-0.47716
1.16107
-0.0143901
1.85879
-0.00667013
0.475828
0.124279
-0.00623787
0.440428
0.242212
-0.0163277
0.418143
0.185513
-0.0108249
0.445037
0.118105
-0.00778391
0.45193
0.0747849
-0.00624426
0.453495
0.0564578
-0.00673103
0.457382
0.0398959
-0.00884636
0.475094
0.0390854
-0.0111484
0.509299
0.0490112
-0.0115908
0.531535
0.0509321
-0.0103388
0.540143
0.0489371
-0.0111324
0.5662
0.061647
-0.0156371
0.610069
0.0906221
-0.0183589
0.631016
0.113173
-0.0165311
0.645928
0.14928
-0.0172187
0.693955
0.250533
-0.022414
0.721899
0.420825
-0.0270242
0.62387
0.806702
-0.0303386
-0.0564016
1.81618
-0.0258979
6.18041
-0.0144954
0.606433
-0.00568955
0.879126
-0.0313037
1.00415
-0.0228008
1.12282
-0.0176252
1.17829
-0.016725
1.18508
-0.0186281
1.21836
-0.023014
1.2812
-0.0266837
1.36076
-0.0266588
1.41435
-0.0259748
1.45869
-0.0312113
1.55183
-0.0397148
1.65945
-0.0420889
1.73503
-0.0433469
1.86958
-0.0494216
2.09856
-0.0652964
2.49187
-0.0850417
3.17041
-0.0910574
4.87854
-0.078149
-0.0515913
0.531186
-0.0374103
0.000698613
0.556828
-0.0485529
0.00044804
0.564951
-0.0240351
-0.000746772
0.561079
-0.0112774
-0.00219491
0.565738
-0.00380006
-0.00366758
0.56855
0.00143484
-0.00429611
0.567332
0.00951732
-0.00393773
0.549824
0.0156003
-0.00342597
0.524835
0.0177883
-0.00350544
0.495193
0.0181392
-0.00412049
0.448701
0.015416
-0.00478466
0.396844
0.0147061
-0.00529404
0.35753
0.0206044
-0.00564088
0.326408
0.0299347
-0.00555116
0.287262
0.0361904
-0.00490166
0.238271
0.0365956
-0.00415086
0.194697
0.0340617
-0.00372359
0.172921