/*--------------------------------*- C++ -*----------------------------------*\
  =========                 |
  \\      /  F ield         | OpenFOAM: The Open Source CFD Toolbox
   \\    /   O peration     | Website:  https://openfoam.org
    \\  /    A nd           | Version:  8
     \\/     M anipulation  |
\*---------------------------------------------------------------------------*/
FoamFile
{
    version     2.0;
    format      ascii;
    class       volScalarField;
    location    "0.005";
    object      T;
}
// * * * * * * * * * * * * * * * * * * * * * * * * * * * * * * * * * * * * * //

dimensions      [0 0 0 1 0 0 0];

internalField   nonuniform List<scalar> 
4000
(
300
320.517
324.325
324.794
324.845
324.851
324.851
324.851
324.851
324.851
324.851
324.851
324.851
324.851
324.852
324.856
324.897
325.222
327.64
342.443
300.001
376.258
387.314
388.65
388.802
388.819
388.821
388.821
388.821
388.821
388.821
388.821
388.821
388.821
388.823
388.833
388.918
389.583
394.497
426.195
300.001
383.282
395.866
397.451
397.639
397.661
397.663
397.663
397.663
397.663
397.663
397.663
397.663
397.663
397.665
397.676
397.768
398.499
403.975
440.216
300.001
384.077
396.905
398.54
398.738
398.761
398.763
398.764
398.764
398.764
398.764
398.764
398.764
398.764
398.765
398.777
398.87
399.612
405.192
442.307
300.001
384.134
396.993
398.637
398.836
398.859
398.862
398.862
398.862
398.862
398.862
398.862
398.862
398.862
398.864
398.875
398.968
399.709
405.294
442.518
300.001
383.904
396.737
398.379
398.578
398.601
398.604
398.604
398.604
398.604
398.604
398.604
398.604
398.604
398.606
398.616
398.706
399.429
404.942
441.925
300.001
382.007
394.585
396.201
396.398
396.421
396.423
396.424
396.424
396.424
396.424
396.424
396.424
396.424
396.425
396.433
396.506
397.141
402.218
437.494
300.001
367.677
378.307
379.716
379.889
379.91
379.913
379.913
379.913
379.913
379.913
379.913
379.913
379.913
379.913
379.912
379.927
380.179
383.064
408.2
300.001
271.157
268.625
268.564
268.579
268.583
268.584
268.584
268.584
268.584
268.584
268.584
268.584
268.583
268.581
268.563
268.422
267.451
261.711
237.102
299.99
-196.586
-260.086
-266.954
-267.642
-267.707
-267.713
-267.714
-267.714
-267.714
-267.714
-267.714
-267.714
-267.714
-267.717
-267.744
-268.014
-270.576
-292.978
-459.629
300
312.449
314.882
315.174
315.204
315.207
315.208
315.208
315.208
315.208
315.208
315.208
315.208
315.208
315.208
315.21
315.227
315.389
316.787
326.724
300.001
358.56
366.465
367.369
367.467
367.477
367.478
367.478
367.478
367.478
367.478
367.478
367.478
367.478
367.479
367.483
367.52
367.862
370.841
393.804
300.001
363.999
373.013
374.087
374.209
374.222
374.224
374.224
374.224
374.224
374.224
374.224
374.224
374.224
374.224
374.229
374.269
374.646
377.975
404.274
300.001
364.579
373.763
374.871
374.998
375.012
375.014
375.014
375.014
375.014
375.014
375.014
375.014
375.014
375.014
375.019
375.06
375.443
378.834
405.744
300.001
364.628
373.833
374.946
375.075
375.089
375.091
375.091
375.091
375.091
375.091
375.091
375.091
375.091
375.091
375.096
375.137
375.52
378.917
405.913
300.001
364.531
373.727
374.84
374.968
374.983
374.984
374.985
374.985
374.985
374.985
374.985
374.985
374.985
374.985
374.989
375.029
375.407
378.779
405.689
300.001
363.585
372.663
373.764
373.892
373.906
373.907
373.908
373.908
373.908
373.908
373.908
373.908
373.908
373.908
373.911
373.947
374.292
377.489
403.626
300.001
355.225
363.242
364.234
364.35
364.363
364.365
364.365
364.365
364.365
364.365
364.365
364.365
364.365
364.365
364.365
364.379
364.565
366.723
387.422
300.001
288.645
288.222
288.317
288.34
288.344
288.344
288.344
288.344
288.344
288.344
288.344
288.344
288.344
288.344
288.337
288.283
287.867
285.18
273.747
299.991
-101.794
-149.226
-154.026
-154.48
-154.521
-154.524
-154.525
-154.525
-154.525
-154.525
-154.525
-154.525
-154.525
-154.526
-154.537
-154.668
-156.095
-170.557
-297.4
300
311.731
313.987
314.25
314.277
314.279
314.279
314.279
314.279
314.279
314.279
314.279
314.279
314.279
314.28
314.281
314.297
314.447
315.739
324.903
300.001
356.953
364.429
365.255
365.341
365.35
365.351
365.351
365.351
365.351
365.351
365.351
365.351
365.351
365.351
365.355
365.39
365.708
368.473
389.741
300.001
362.187
370.697
371.677
371.784
371.795
371.797
371.797
371.797
371.797
371.797
371.797
371.797
371.797
371.797
371.801
371.839
372.189
375.273
399.572
300.001
362.732
371.396
372.405
372.517
372.529
372.53
372.53
372.53
372.53
372.53
372.53
372.53
372.53
372.531
372.535
372.573
372.928
376.067
400.904
300.001
362.776
371.458
372.473
372.585
372.597
372.598
372.599
372.599
372.599
372.599
372.599
372.599
372.599
372.599
372.603
372.641
372.996
376.14
401.049
300.001
362.683
371.356
372.37
372.483
372.495
372.496
372.496
372.496
372.496
372.496
372.496
372.496
372.496
372.497
372.5
372.538
372.888
376.009
400.836
300.001
361.774
370.338
371.341
371.452
371.464
371.466
371.466
371.466
371.466
371.466
371.466
371.466
371.466
371.466
371.469
371.502
371.823
374.781
398.897
300.001
353.714
361.287
362.193
362.294
362.305
362.307
362.307
362.307
362.307
362.307
362.307
362.307
362.307
362.307
362.308
362.32
362.493
364.494
383.601
300.001
289.184
288.822
288.915
288.936
288.94
288.94
288.94
288.94
288.94
288.94
288.94
288.94
288.94
288.939
288.934
288.884
288.5
286.017
275.437
299.991
-92.6929
-137.901
-142.341
-142.746
-142.782
-142.785
-142.785
-142.785
-142.785
-142.785
-142.785
-142.785
-142.785
-142.786
-142.797
-142.917
-144.239
-157.691
-275.944
300
311.664
313.899
314.158
314.184
314.187
314.187
314.187
314.187
314.187
314.187
314.187
314.187
314.187
314.187
314.189
314.205
314.353
315.632
324.692
300.001
356.795
364.216
365.03
365.114
365.123
365.124
365.124
365.124
365.124
365.124
365.124
365.124
365.124
365.124
365.128
365.162
365.477
368.213
389.233
300.001
362.003
370.447
371.412
371.516
371.527
371.528
371.528
371.528
371.528
371.528
371.528
371.528
371.528
371.529
371.533
371.57
371.916
374.966
398.962
300.001
362.542
371.137
372.131
372.24
372.251
372.252
372.252
372.252
372.252
372.252
372.252
372.252
372.252
372.253
372.257
372.295
372.646
375.749
400.268
300.001
362.586
371.199
372.197
372.306
372.318
372.319
372.319
372.319
372.319
372.319
372.319
372.319
372.319
372.32
372.324
372.361
372.713
375.821
400.407
300.001
362.493
371.097
372.095
372.204
372.216
372.217
372.217
372.217
372.217
372.217
372.217
372.217
372.217
372.217
372.221
372.258
372.605
375.689
400.195
300.001
361.587
370.082
371.07
371.178
371.19
371.191
371.191
371.191
371.191
371.191
371.191
371.191
371.191
371.191
371.194
371.227
371.544
374.468
398.27
300.001
353.554
361.067
361.958
362.057
362.068
362.069
362.069
362.069
362.069
362.069
362.069
362.069
362.069
362.069
362.07
362.082
362.253
364.228
383.075
300.001
289.211
288.849
288.941
288.961
288.964
288.965
288.965
288.965
288.965
288.965
288.965
288.965
288.965
288.964
288.958
288.909
288.528
286.066
275.549
299.991
-91.8734
-136.828
-141.219
-141.617
-141.651
-141.654
-141.654
-141.654
-141.654
-141.654
-141.654
-141.654
-141.654
-141.655
-141.666
-141.785
-143.094
-156.42
-273.519
300
311.658
313.891
314.15
314.176
314.178
314.178
314.178
314.178
314.178
314.178
314.178
314.178
314.178
314.179
314.18
314.196
314.344
315.622
324.67
300.001
356.78
364.194
365.007
365.091
365.1
365.1
365.1
365.1
365.1
365.1
365.1
365.1
365.1
365.101
365.105
365.139
365.453
368.185
389.173
300.001
361.985
370.422
371.384
371.488
371.499
371.5
371.5
371.5
371.5
371.5
371.5
371.5
371.5
371.5
371.504
371.542
371.887
374.932
398.887
300.001
362.524
371.111
372.102
372.21
372.221
372.222
372.223
372.223
372.223
372.223
372.223
372.223
372.223
372.223
372.227
372.265
372.616
375.714
400.188
300.001
362.567
371.172
372.167
372.276
372.288
372.289
372.289
372.289
372.289
372.289
372.289
372.289
372.289
372.29
372.294
372.331
372.682
375.785
400.327
300.001
362.474
371.07
372.065
372.174
372.186
372.187
372.187
372.187
372.187
372.187
372.187
372.187
372.187
372.187
372.191
372.228
372.574
375.654
400.114
300.001
361.569
370.055
371.041
371.148
371.16
371.161
371.161
371.161
371.161
371.161
371.161
371.161
371.161
371.162
371.165
371.197
371.514
374.433
398.191
300.001
353.538
361.044
361.933
362.031
362.042
362.043
362.043
362.043
362.043
362.043
362.043
362.043
362.043
362.043
362.044
362.056
362.226
364.198
383.007
300.001
289.212
288.849
288.94
288.96
288.963
288.964
288.964
288.964
288.964
288.964
288.964
288.964
288.964
288.963
288.957
288.908
288.528
286.067
275.553
299.991
-91.8044
-136.733
-141.118
-141.515
-141.55
-141.552
-141.553
-141.553
-141.553
-141.553
-141.553
-141.553
-141.553
-141.554
-141.564
-141.683
-142.991
-156.303
-273.266
300
311.658
313.891
314.149
314.175
314.177
314.178
314.178
314.178
314.178
314.178
314.178
314.178
314.178
314.178
314.179
314.195
314.343
315.621
324.668
300.001
356.778
364.192
365.005
365.089
365.097
365.098
365.098
365.098
365.098
365.098
365.098
365.098
365.098
365.099
365.102
365.137
365.451
368.182
389.166
300.001
361.984
370.419
371.381
371.485
371.496
371.497
371.497
371.497
371.497
371.497
371.497
371.497
371.497
371.497
371.501
371.539
371.884
374.929
398.878
300.001
362.522
371.108
372.099
372.207
372.218
372.219
372.219
372.219
372.219
372.219
372.219
372.219
372.22
372.22
372.224
372.262
372.612
375.71
400.179
300.001
362.565
371.169
372.164
372.273
372.285
372.286
372.286
372.286
372.286
372.286
372.286
372.286
372.286
372.286
372.29
372.328
372.679
375.781
400.317
300.001
362.472
371.067
372.062
372.171
372.182
372.184
372.184
372.184
372.184
372.184
372.184
372.184
372.184
372.184
372.188
372.225
372.571
375.65
400.104
300.001
361.567
370.053
371.037
371.145
371.157
371.158
371.158
371.158
371.158
371.158
371.158
371.158
371.158
371.159
371.162
371.194
371.51
374.429
398.181
300.001
353.536
361.041
361.93
362.028
362.039
362.04
362.04
362.04
362.04
362.04
362.04
362.04
362.04
362.04
362.041
362.053
362.223
364.195
382.999
300.001
289.212
288.848
288.94
288.96
288.963
288.963
288.964
288.964
288.964
288.964
288.964
288.964
288.963
288.963
288.957
288.908
288.527
286.067
275.552
299.991
-91.7989
-136.725
-141.11
-141.507
-141.541
-141.544
-141.544
-141.544
-141.544
-141.544
-141.544
-141.544
-141.544
-141.545
-141.555
-141.675
-142.982
-156.292
-273.241
300
311.658
313.891
314.149
314.175
314.177
314.178
314.178
314.178
314.178
314.178
314.178
314.178
314.178
314.178
314.179
314.195
314.343
315.621
324.667
300.001
356.778
364.192
365.005
365.089
365.097
365.098
365.098
365.098
365.098
365.098
365.098
365.098
365.098
365.098
365.102
365.136
365.451
368.182
389.165
300.001
361.983
370.419
371.381
371.485
371.495
371.497
371.497
371.497
371.497
371.497
371.497
371.497
371.497
371.497
371.501
371.538
371.884
374.928
398.877
300.001
362.522
371.108
372.098
372.206
372.218
372.219
372.219
372.219
372.219
372.219
372.219
372.219
372.219
372.22
372.224
372.261
372.612
375.71
400.177
300.001
362.565
371.169
372.164
372.273
372.284
372.285
372.286
372.286
372.286
372.286
372.286
372.286
372.286
372.286
372.29
372.328
372.678
375.781
400.316
300.001
362.472
371.067
372.062
372.171
372.182
372.183
372.183
372.183
372.183
372.183
372.183
372.183
372.183
372.184
372.188
372.225
372.57
375.65
400.103
300.001
361.567
370.052
371.037
371.145
371.157
371.158
371.158
371.158
371.158
371.158
371.158
371.158
371.158
371.158
371.161
371.194
371.51
374.429
398.18
300.001
353.536
361.041
361.93
362.028
362.039
362.04
362.04
362.04
362.04
362.04
362.04
362.04
362.04
362.04
362.04
362.053
362.223
364.195
382.998
300.001
289.212
288.848
288.939
288.96
288.963
288.963
288.963
288.963
288.963
288.963
288.963
288.963
288.963
288.963
288.957
288.908
288.527
286.067
275.552
299.991
-91.7984
-136.725
-141.109
-141.506
-141.54
-141.543
-141.543
-141.543
-141.543
-141.543
-141.543
-141.543
-141.543
-141.544
-141.555
-141.674
-142.982
-156.291
-273.239
300
311.658
313.891
314.149
314.175
314.177
314.178
314.178
314.178
314.178
314.178
314.178
314.178
314.178
314.178
314.179
314.195
314.343
315.621
324.667
300.001
356.778
364.192
365.005
365.089
365.097
365.098
365.098
365.098
365.098
365.098
365.098
365.098
365.098
365.098
365.102
365.136
365.451
368.182
389.165
300.001
361.983
370.419
371.381
371.485
371.495
371.497
371.497
371.497
371.497
371.497
371.497
371.497
371.497
371.497
371.501
371.538
371.884
374.928
398.877
300.001
362.522
371.107
372.098
372.206
372.218
372.219
372.219
372.219
372.219
372.219
372.219
372.219
372.219
372.22
372.224
372.261
372.612
375.71
400.177
300.001
362.565
371.169
372.164
372.273
372.284
372.285
372.286
372.286
372.286
372.286
372.286
372.286
372.286
372.286
372.29
372.328
372.678
375.781
400.315
300.001
362.472
371.067
372.062
372.17
372.182
372.183
372.183
372.183
372.183
372.183
372.183
372.183
372.183
372.184
372.188
372.224
372.57
375.649
400.103
300.001
361.567
370.052
371.037
371.145
371.156
371.158
371.158
371.158
371.158
371.158
371.158
371.158
371.158
371.158
371.161
371.193
371.51
374.429
398.18
300.001
353.536
361.041
361.93
362.028
362.038
362.04
362.04
362.04
362.04
362.04
362.04
362.04
362.04
362.04
362.04
362.053
362.223
364.195
382.997
300.001
289.212
288.848
288.939
288.96
288.963
288.963
288.963
288.963
288.963
288.963
288.963
288.963
288.963
288.963
288.957
288.908
288.527
286.067
275.552
299.991
-91.7984
-136.725
-141.109
-141.506
-141.54
-141.543
-141.543
-141.543
-141.543
-141.543
-141.543
-141.543
-141.543
-141.544
-141.555
-141.674
-142.982
-156.291
-273.238
300
311.658
313.891
314.149
314.175
314.177
314.178
314.178
314.178
314.178
314.178
314.178
314.178
314.178
314.178
314.179
314.195
314.343
315.621
324.667
300.001
356.778
364.192
365.005
365.089
365.097
365.098
365.098
365.098
365.098
365.098
365.098
365.098
365.098
365.098
365.102
365.136
365.451
368.182
389.165
300.001
361.983
370.419
371.381
371.485
371.495
371.497
371.497
371.497
371.497
371.497
371.497
371.497
371.497
371.497
371.501
371.538
371.884
374.928
398.877
300.001
362.522
371.107
372.098
372.206
372.218
372.219
372.219
372.219
372.219
372.219
372.219
372.219
372.219
372.22
372.224
372.261
372.612
375.71
400.177
300.001
362.565
371.169
372.164
372.273
372.284
372.285
372.286
372.286
372.286
372.286
372.286
372.286
372.286
372.286
372.29
372.328
372.678
375.781
400.315
300.001
362.472
371.067
372.062
372.17
372.182
372.183
372.183
372.183
372.183
372.183
372.183
372.183
372.183
372.184
372.188
372.224
372.57
375.649
400.103
300.001
361.567
370.052
371.037
371.145
371.156
371.158
371.158
371.158
371.158
371.158
371.158
371.158
371.158
371.158
371.161
371.193
371.51
374.429
398.18
300.001
353.536
361.041
361.93
362.028
362.038
362.04
362.04
362.04
362.04
362.04
362.04
362.04
362.04
362.04
362.04
362.053
362.223
364.195
382.997
300.001
289.212
288.848
288.939
288.96
288.963
288.963
288.963
288.963
288.963
288.963
288.963
288.963
288.963
288.963
288.957
288.908
288.527
286.067
275.552
299.991
-91.7984
-136.724
-141.109
-141.506
-141.54
-141.543
-141.543
-141.543
-141.543
-141.543
-141.543
-141.543
-141.543
-141.544
-141.555
-141.674
-142.982
-156.291
-273.238
300
311.658
313.891
314.149
314.175
314.177
314.178
314.178
314.178
314.178
314.178
314.178
314.178
314.178
314.178
314.179
314.195
314.343
315.621
324.667
300.001
356.778
364.192
365.005
365.089
365.097
365.098
365.098
365.098
365.098
365.098
365.098
365.098
365.098
365.098
365.102
365.136
365.451
368.182
389.165
300.001
361.983
370.419
371.381
371.485
371.495
371.497
371.497
371.497
371.497
371.497
371.497
371.497
371.497
371.497
371.501
371.538
371.884
374.928
398.877
300.001
362.522
371.107
372.098
372.206
372.218
372.219
372.219
372.219
372.219
372.219
372.219
372.219
372.219
372.22
372.224
372.261
372.612
375.71
400.177
300.001
362.565
371.169
372.164
372.273
372.284
372.285
372.286
372.286
372.286
372.286
372.286
372.286
372.286
372.286
372.29
372.328
372.678
375.781
400.315
300.001
362.472
371.067
372.062
372.17
372.182
372.183
372.183
372.183
372.183
372.183
372.183
372.183
372.183
372.184
372.188
372.224
372.57
375.649
400.103
300.001
361.567
370.052
371.037
371.145
371.156
371.158
371.158
371.158
371.158
371.158
371.158
371.158
371.158
371.158
371.161
371.193
371.51
374.429
398.18
300.001
353.536
361.041
361.93
362.028
362.038
362.04
362.04
362.04
362.04
362.04
362.04
362.04
362.04
362.04
362.04
362.053
362.223
364.195
382.997
300.001
289.212
288.848
288.939
288.96
288.963
288.963
288.963
288.963
288.963
288.963
288.963
288.963
288.963
288.963
288.957
288.908
288.527
286.067
275.552
299.991
-91.7984
-136.724
-141.109
-141.506
-141.54
-141.543
-141.543
-141.543
-141.543
-141.543
-141.543
-141.543
-141.543
-141.544
-141.555
-141.674
-142.982
-156.291
-273.238
300
311.658
313.891
314.149
314.175
314.177
314.178
314.178
314.178
314.178
314.178
314.178
314.178
314.178
314.178
314.179
314.195
314.343
315.621
324.667
300.001
356.778
364.192
365.005
365.089
365.097
365.098
365.098
365.098
365.098
365.098
365.098
365.098
365.098
365.098
365.102
365.136
365.451
368.182
389.165
300.001
361.983
370.419
371.381
371.485
371.495
371.497
371.497
371.497
371.497
371.497
371.497
371.497
371.497
371.497
371.501
371.538
371.884
374.928
398.877
300.001
362.522
371.107
372.098
372.206
372.218
372.219
372.219
372.219
372.219
372.219
372.219
372.219
372.219
372.22
372.224
372.261
372.612
375.71
400.177
300.001
362.565
371.169
372.164
372.273
372.284
372.285
372.286
372.286
372.286
372.286
372.286
372.286
372.286
372.286
372.29
372.328
372.678
375.781
400.315
300.001
362.472
371.067
372.062
372.17
372.182
372.183
372.183
372.183
372.183
372.183
372.183
372.183
372.183
372.184
372.188
372.224
372.57
375.649
400.103
300.001
361.567
370.052
371.037
371.145
371.156
371.158
371.158
371.158
371.158
371.158
371.158
371.158
371.158
371.158
371.161
371.193
371.51
374.429
398.18
300.001
353.536
361.041
361.93
362.028
362.038
362.04
362.04
362.04
362.04
362.04
362.04
362.04
362.04
362.04
362.04
362.053
362.223
364.195
382.997
300.001
289.212
288.848
288.939
288.96
288.963
288.963
288.963
288.963
288.963
288.963
288.963
288.963
288.963
288.963
288.957
288.908
288.527
286.067
275.552
299.991
-91.7984
-136.724
-141.109
-141.506
-141.54
-141.543
-141.543
-141.543
-141.543
-141.543
-141.543
-141.543
-141.543
-141.544
-141.555
-141.674
-142.982
-156.291
-273.238
300
311.658
313.891
314.149
314.175
314.177
314.178
314.178
314.178
314.178
314.178
314.178
314.178
314.178
314.178
314.179
314.195
314.343
315.621
324.667
300.001
356.778
364.192
365.005
365.089
365.097
365.098
365.098
365.098
365.098
365.098
365.098
365.098
365.098
365.098
365.102
365.136
365.451
368.182
389.165
300.001
361.983
370.419
371.381
371.485
371.495
371.497
371.497
371.497
371.497
371.497
371.497
371.497
371.497
371.497
371.501
371.538
371.884
374.928
398.877
300.001
362.522
371.107
372.098
372.206
372.218
372.219
372.219
372.219
372.219
372.219
372.219
372.219
372.219
372.22
372.224
372.261
372.612
375.71
400.177
300.001
362.565
371.169
372.164
372.273
372.284
372.285
372.286
372.286
372.286
372.286
372.286
372.286
372.286
372.286
372.29
372.328
372.678
375.781
400.315
300.001
362.472
371.067
372.062
372.17
372.182
372.183
372.183
372.183
372.183
372.183
372.183
372.183
372.183
372.184
372.188
372.224
372.57
375.649
400.103
300.001
361.567
370.052
371.037
371.145
371.156
371.158
371.158
371.158
371.158
371.158
371.158
371.158
371.158
371.158
371.161
371.193
371.51
374.429
398.18
300.001
353.536
361.041
361.93
362.028
362.038
362.04
362.04
362.04
362.04
362.04
362.04
362.04
362.04
362.04
362.04
362.053
362.223
364.195
382.997
300.001
289.212
288.848
288.939
288.96
288.963
288.963
288.963
288.963
288.963
288.963
288.963
288.963
288.963
288.963
288.957
288.908
288.527
286.067
275.552
299.991
-91.7984
-136.724
-141.109
-141.506
-141.54
-141.543
-141.543
-141.543
-141.543
-141.543
-141.543
-141.543
-141.543
-141.544
-141.555
-141.674
-142.982
-156.291
-273.238
300
311.658
313.891
314.149
314.175
314.177
314.178
314.178
314.178
314.178
314.178
314.178
314.178
314.178
314.178
314.179
314.195
314.343
315.621
324.667
300.001
356.778
364.192
365.005
365.089
365.097
365.098
365.098
365.098
365.098
365.098
365.098
365.098
365.098
365.098
365.102
365.136
365.451
368.182
389.165
300.001
361.983
370.419
371.381
371.485
371.495
371.497
371.497
371.497
371.497
371.497
371.497
371.497
371.497
371.497
371.501
371.538
371.884
374.928
398.877
300.001
362.522
371.107
372.098
372.206
372.218
372.219
372.219
372.219
372.219
372.219
372.219
372.219
372.219
372.22
372.224
372.261
372.612
375.71
400.177
300.001
362.565
371.169
372.164
372.273
372.284
372.285
372.286
372.286
372.286
372.286
372.286
372.286
372.286
372.286
372.29
372.328
372.678
375.781
400.315
300.001
362.472
371.067
372.062
372.17
372.182
372.183
372.183
372.183
372.183
372.183
372.183
372.183
372.183
372.184
372.188
372.224
372.57
375.649
400.103
300.001
361.567
370.052
371.037
371.145
371.156
371.158
371.158
371.158
371.158
371.158
371.158
371.158
371.158
371.158
371.161
371.193
371.51
374.429
398.18
300.001
353.536
361.041
361.93
362.028
362.038
362.04
362.04
362.04
362.04
362.04
362.04
362.04
362.04
362.04
362.04
362.053
362.223
364.195
382.997
300.001
289.212
288.848
288.939
288.96
288.963
288.963
288.963
288.963
288.963
288.963
288.963
288.963
288.963
288.963
288.957
288.908
288.527
286.067
275.552
299.991
-91.7984
-136.725
-141.109
-141.506
-141.54
-141.543
-141.543
-141.543
-141.543
-141.543
-141.543
-141.543
-141.543
-141.544
-141.555
-141.674
-142.982
-156.291
-273.238
300
311.658
313.891
314.149
314.175
314.177
314.178
314.178
314.178
314.178
314.178
314.178
314.178
314.178
314.178
314.179
314.195
314.343
315.621
324.667
300.001
356.778
364.192
365.005
365.089
365.097
365.098
365.098
365.098
365.098
365.098
365.098
365.098
365.098
365.098
365.102
365.136
365.451
368.182
389.165
300.001
361.983
370.419
371.381
371.485
371.495
371.497
371.497
371.497
371.497
371.497
371.497
371.497
371.497
371.497
371.501
371.538
371.884
374.928
398.877
300.001
362.522
371.108
372.098
372.206
372.218
372.219
372.219
372.219
372.219
372.219
372.219
372.219
372.219
372.22
372.224
372.261
372.612
375.71
400.177
300.001
362.565
371.169
372.164
372.273
372.284
372.285
372.286
372.286
372.286
372.286
372.286
372.286
372.286
372.286
372.29
372.328
372.679
375.781
400.316
300.001
362.472
371.067
372.062
372.171
372.182
372.183
372.183
372.183
372.183
372.183
372.183
372.183
372.183
372.184
372.188
372.225
372.57
375.65
400.103
300.001
361.567
370.052
371.037
371.145
371.157
371.158
371.158
371.158
371.158
371.158
371.158
371.158
371.158
371.158
371.161
371.194
371.51
374.429
398.18
300.001
353.536
361.041
361.93
362.028
362.038
362.04
362.04
362.04
362.04
362.04
362.04
362.04
362.04
362.04
362.04
362.053
362.223
364.195
382.997
300.001
289.212
288.848
288.939
288.96
288.963
288.963
288.963
288.963
288.963
288.963
288.963
288.963
288.963
288.963
288.957
288.908
288.527
286.067
275.551
299.991
-91.7985
-136.725
-141.109
-141.506
-141.54
-141.543
-141.543
-141.543
-141.543
-141.543
-141.543
-141.543
-141.543
-141.544
-141.555
-141.674
-142.982
-156.291
-273.239
300
311.658
313.891
314.149
314.175
314.177
314.178
314.178
314.178
314.178
314.178
314.178
314.178
314.178
314.178
314.18
314.195
314.344
315.621
324.668
300.001
356.779
364.193
365.005
365.089
365.097
365.098
365.098
365.098
365.098
365.098
365.098
365.098
365.098
365.099
365.102
365.137
365.451
368.183
389.166
300.001
361.984
370.419
371.382
371.485
371.496
371.497
371.497
371.497
371.497
371.497
371.497
371.497
371.497
371.498
371.501
371.539
371.884
374.929
398.878
300.001
362.522
371.108
372.099
372.207
372.218
372.219
372.22
372.22
372.22
372.22
372.22
372.22
372.22
372.22
372.224
372.262
372.613
375.71
400.179
300.001
362.565
371.169
372.164
372.273
372.285
372.286
372.286
372.286
372.286
372.286
372.286
372.286
372.286
372.286
372.29
372.328
372.679
375.781
400.317
300.001
362.473
371.067
372.062
372.171
372.182
372.184
372.184
372.184
372.184
372.184
372.184
372.184
372.184
372.184
372.188
372.225
372.571
375.65
400.104
300.001
361.567
370.053
371.037
371.145
371.157
371.158
371.158
371.158
371.158
371.158
371.158
371.158
371.158
371.158
371.162
371.194
371.51
374.429
398.181
300.001
353.536
361.041
361.93
362.028
362.038
362.04
362.04
362.04
362.04
362.04
362.04
362.04
362.04
362.04
362.04
362.053
362.223
364.194
382.997
300.001
289.211
288.848
288.939
288.959
288.962
288.963
288.963
288.963
288.963
288.963
288.963
288.963
288.963
288.962
288.956
288.907
288.526
286.066
275.55
299.991
-91.7992
-136.725
-141.11
-141.507
-141.541
-141.544
-141.544
-141.544
-141.544
-141.544
-141.544
-141.544
-141.544
-141.545
-141.555
-141.675
-142.983
-156.293
-273.241
300
311.659
313.892
314.151
314.177
314.179
314.179
314.179
314.179
314.179
314.179
314.179
314.179
314.179
314.179
314.181
314.197
314.345
315.623
324.672
300.001
356.782
364.196
365.009
365.093
365.101
365.102
365.102
365.102
365.102
365.102
365.102
365.102
365.102
365.102
365.106
365.14
365.455
368.188
389.175
300.001
361.987
370.423
371.385
371.489
371.5
371.501
371.501
371.501
371.501
371.501
371.501
371.501
371.501
371.501
371.505
371.543
371.889
374.934
398.888
300.001
362.525
371.112
372.103
372.211
372.222
372.223
372.223
372.223
372.223
372.223
372.223
372.223
372.223
372.224
372.228
372.266
372.617
375.716
400.188
300.001
362.568
371.173
372.168
372.277
372.288
372.29
372.29
372.29
372.29
372.29
372.29
372.29
372.29
372.29
372.294
372.332
372.683
375.787
400.326
300.001
362.476
371.071
372.066
372.175
372.186
372.187
372.187
372.187
372.187
372.187
372.187
372.187
372.188
372.188
372.192
372.229
372.575
375.655
400.113
300.001
361.57
370.056
371.04
371.148
371.16
371.161
371.161
371.161
371.161
371.161
371.161
371.161
371.161
371.161
371.165
371.197
371.514
374.433
398.188
300.001
353.536
361.042
361.93
362.029
362.039
362.04
362.04
362.04
362.04
362.04
362.04
362.04
362.04
362.04
362.041
362.053
362.224
364.195
382.998
300.001
289.206
288.842
288.933
288.954
288.957
288.957
288.957
288.957
288.957
288.957
288.957
288.957
288.957
288.957
288.951
288.902
288.52
286.058
275.535
299.991
-91.8074
-136.735
-141.12
-141.517
-141.551
-141.554
-141.554
-141.554
-141.554
-141.554
-141.554
-141.554
-141.554
-141.555
-141.565
-141.685
-142.993
-156.306
-273.264
300
311.671
313.907
314.166
314.192
314.194
314.194
314.194
314.194
314.194
314.194
314.194
314.194
314.194
314.194
314.196
314.212
314.361
315.643
324.707
300.001
356.808
364.228
365.041
365.125
365.134
365.135
365.135
365.135
365.135
365.135
365.135
365.135
365.135
365.135
365.139
365.174
365.49
368.231
389.249
300.001
362.016
370.458
371.421
371.525
371.535
371.537
371.537
371.537
371.537
371.537
371.537
371.537
371.537
371.537
371.541
371.579
371.927
374.982
398.969
300.001
362.555
371.147
372.139
372.247
372.258
372.26
372.26
372.26
372.26
372.26
372.26
372.26
372.26
372.26
372.264
372.303
372.656
375.764
400.271
300.001
362.598
371.208
372.204
372.313
372.325
372.326
372.326
372.326
372.326
372.326
372.326
372.326
372.326
372.327
372.331
372.369
372.722
375.835
400.409
300.001
362.504
371.105
372.101
372.21
372.222
372.223
372.223
372.223
372.223
372.223
372.223
372.223
372.223
372.223
372.227
372.264
372.612
375.702
400.193
300.001
361.594
370.086
371.071
371.179
371.191
371.192
371.192
371.192
371.192
371.192
371.192
371.192
371.192
371.192
371.196
371.228
371.546
374.473
398.254
300.001
353.545
361.053
361.942
362.041
362.051
362.052
362.052
362.052
362.052
362.052
362.052
362.052
362.052
362.052
362.053
362.065
362.235
364.207
383.015
300.001
289.167
288.797
288.887
288.907
288.91
288.911
288.911
288.911
288.911
288.911
288.911
288.911
288.911
288.91
288.904
288.854
288.47
285.992
275.418
299.991
-91.9006
-136.846
-141.233
-141.63
-141.664
-141.667
-141.667
-141.667
-141.667
-141.667
-141.667
-141.667
-141.667
-141.668
-141.679
-141.799
-143.111
-156.447
-273.504
300
311.787
314.044
314.306
314.332
314.335
314.335
314.335
314.335
314.335
314.335
314.335
314.335
314.335
314.335
314.337
314.354
314.508
315.817
324.997
300.001
357.052
364.521
365.342
365.427
365.435
365.436
365.436
365.436
365.436
365.436
365.436
365.436
365.436
365.437
365.441
365.477
365.805
368.602
389.852
300.001
362.282
370.78
371.752
371.857
371.868
371.869
371.869
371.869
371.869
371.869
371.869
371.869
371.869
371.869
371.874
371.914
372.273
375.391
399.64
300.001
362.824
371.474
372.475
372.584
372.596
372.597
372.597
372.597
372.597
372.597
372.597
372.597
372.597
372.598
372.602
372.642
373.008
376.18
400.955
300.001
362.867
371.535
372.54
372.65
372.662
372.663
372.663
372.663
372.663
372.663
372.663
372.663
372.663
372.664
372.668
372.708
373.074
376.25
401.093
300.001
362.77
371.427
372.432
372.542
372.554
372.555
372.555
372.555
372.555
372.555
372.555
372.555
372.555
372.556
372.56
372.599
372.959
376.11
400.863
300.001
361.836
370.38
371.374
371.484
371.495
371.496
371.497
371.497
371.497
371.497
371.497
371.497
371.497
371.497
371.5
371.534
371.861
374.84
398.851
300.001
353.671
361.211
362.106
362.205
362.216
362.217
362.217
362.217
362.217
362.217
362.217
362.217
362.217
362.217
362.218
362.23
362.4
364.386
383.286
300.001
288.861
288.441
288.526
288.546
288.549
288.549
288.549
288.549
288.549
288.549
288.549
288.549
288.549
288.548
288.542
288.489
288.086
285.518
274.602
299.991
-92.9146
-138.058
-142.473
-142.873
-142.908
-142.911
-142.911
-142.911
-142.911
-142.911
-142.911
-142.911
-142.911
-142.912
-142.923
-143.047
-144.39
-157.91
-275.852
300
312.771
315.225
315.515
315.545
315.548
315.548
315.548
315.548
315.548
315.548
315.548
315.548
315.548
315.549
315.551
315.572
315.753
317.232
327.24
300.001
359.14
367.066
367.958
368.052
368.062
368.063
368.063
368.063
368.063
368.063
368.063
368.063
368.063
368.064
368.069
368.114
368.498
371.631
394.52
300.001
364.594
373.615
374.672
374.788
374.801
374.802
374.802
374.802
374.802
374.802
374.802
374.802
374.803
374.803
374.809
374.858
375.28
378.78
404.92
300.001
365.172
374.357
375.446
375.568
375.581
375.583
375.583
375.583
375.583
375.583
375.583
375.583
375.583
375.583
375.589
375.639