/*--------------------------------*- C++ -*----------------------------------*\
  =========                 |
  \\      /  F ield         | OpenFOAM: The Open Source CFD Toolbox
   \\    /   O peration     | Website:  https://openfoam.org
    \\  /    A nd           | Version:  8
     \\/     M anipulation  |
\*---------------------------------------------------------------------------*/
FoamFile
{
    version     2.0;
    format      ascii;
    class       volVectorField;
    location    "0.005";
    object      U;
}
// * * * * * * * * * * * * * * * * * * * * * * * * * * * * * * * * * * * * * //

dimensions      [0 1 -1 0 0 0 0];

internalField   nonuniform List<vector> 
4000
(
(0.817577 -0.143583 -0.0117525)
(2.18013 -0.618827 -0.0588192)
(1.96632 -0.62316 -0.0275045)
(2.02941 -0.60102 -0.0255675)
(2.03301 -0.596845 -0.027638)
(2.03633 -0.588693 -0.0248947)
(2.03589 -0.57659 -0.0137559)
(2.00213 -0.579366 -0.0164971)
(1.91802 -0.572459 -0.017182)
(1.83213 -0.551471 -0.00661449)
(1.72526 -0.54969 -0.0037286)
(1.5593 -0.560675 -0.0122983)
(1.37865 -0.55636 -0.0198917)
(1.23085 -0.536134 -0.0195589)
(1.10029 -0.518325 -0.0154708)
(0.951355 -0.514904 -0.0140645)
(0.783573 -0.52709 -0.017237)
(0.621827 -0.555538 -0.0205535)
(0.582271 -0.656511 -0.0140147)
(1.41599 -0.989054 0.00235593)
(0.806222 -0.254854 -0.00547277)
(1.9097 -0.772708 -0.0193992)
(1.668 -0.757171 0.000437143)
(1.66973 -0.719681 -0.000884463)
(1.65846 -0.704943 0.00794732)
(1.66747 -0.696074 0.0045648)
(1.65825 -0.688127 0.00646502)
(1.62667 -0.683541 0.0149432)
(1.57774 -0.669351 0.018597)
(1.50394 -0.652522 0.0151809)
(1.39137 -0.653686 0.011083)
(1.25886 -0.648076 0.0107691)
(1.1377 -0.612086 0.0118882)
(1.0288 -0.56377 0.0124558)
(0.90932 -0.531334 0.0122041)
(0.764271 -0.525073 0.0107291)
(0.603642 -0.542846 0.00951829)
(0.424635 -0.588991 0.0142023)
(0.358457 -0.754177 0.0361105)
(1.4685 -1.21017 0.0948491)
(0.798002 -0.180194 -0.000898121)
(1.90584 -0.596164 0.00371096)
(1.70892 -0.623996 0.0315445)
(1.69819 -0.602553 0.0311009)
(1.67166 -0.593898 0.0329389)
(1.66781 -0.595129 0.0321023)
(1.66321 -0.596203 0.0380359)
(1.64209 -0.591333 0.0443376)
(1.58614 -0.585278 0.0477922)
(1.50115 -0.575971 0.0445995)
(1.40328 -0.560555 0.0420022)
(1.30587 -0.518991 0.0442305)
(1.20211 -0.449895 0.0457359)
(1.07871 -0.379832 0.0442266)
(0.930773 -0.330854 0.0416532)
(0.759646 -0.3078 0.0395527)
(0.571558 -0.311728 0.04123)
(0.322028 -0.361473 0.0531768)
(0.19871 -0.570988 0.0911025)
(1.90538 -1.05604 0.190515)
(0.784209 -0.121726 0.00111482)
(1.85973 -0.426019 0.0243678)
(1.71312 -0.490412 0.0523897)
(1.69875 -0.496891 0.0480743)
(1.66535 -0.510358 0.0502529)
(1.66508 -0.522597 0.0530916)
(1.66203 -0.521629 0.0546158)
(1.63759 -0.525183 0.0553464)
(1.5931 -0.532136 0.0629416)
(1.52867 -0.512433 0.0621892)
(1.44835 -0.47221 0.0580371)
(1.36952 -0.413169 0.0594457)
(1.27686 -0.332752 0.0613533)
(1.14784 -0.241878 0.059779)
(0.981307 -0.156374 0.0563583)
(0.783155 -0.088651 0.0540297)
(0.549894 -0.0552495 0.0575919)
(0.194375 -0.097481 0.0730028)
(-0.019318 -0.352742 0.120571)
(2.28726 -0.899726 0.259654)
(0.765547 -0.0752264 0.00188549)
(1.7811 -0.296203 0.0403975)
(1.68718 -0.39177 0.0670183)
(1.67672 -0.420246 0.0612467)
(1.64536 -0.439922 0.0631749)
(1.65644 -0.462878 0.0769472)
(1.66061 -0.471863 0.0796453)
(1.63158 -0.481077 0.0735818)
(1.59889 -0.494537 0.0802836)
(1.56107 -0.479561 0.0798782)
(1.50254 -0.434796 0.074825)
(1.44533 -0.363615 0.0761609)
(1.3734 -0.264215 0.0791051)
(1.25508 -0.139691 0.0782235)
(1.08396 0.000215358 0.0743304)
(0.860521 0.139607 0.0707973)
(0.562597 0.247688 0.0720918)
(0.0532384 0.257348 0.0855515)
(-0.319398 -0.0105982 0.144796)
(2.48209 -0.648379 0.336764)
(0.743196 -0.0323835 -0.00174419)
(1.67438 -0.157932 0.0427265)
(1.63783 -0.275121 0.0786335)
(1.64898 -0.331892 0.0842437)
(1.6221 -0.356946 0.0745043)
(1.63304 -0.394714 0.0915462)
(1.64382 -0.430701 0.0972327)
(1.61491 -0.458888 0.0867826)
(1.59462 -0.479446 0.0897313)
(1.58841 -0.471731 0.0892721)
(1.5643 -0.424471 0.0857578)
(1.5401 -0.339446 0.0879111)
(1.50078 -0.218995 0.0908435)
(1.41226 -0.0581601 0.0899351)
(1.26056 0.14752 0.0860512)
(1.03038 0.390356 0.0818728)
(0.66752 0.639348 0.080404)
(-0.0352077 0.81364 0.0926671)
(-0.691446 0.659735 0.165478)
(2.24297 -0.033142 0.397848)
(0.723036 0.0285427 -0.0029572)
(1.56934 0.0779943 0.049453)
(1.5623 -0.060825 0.0876362)
(1.5933 -0.18275 0.116655)
(1.58192 -0.250728 0.104876)
(1.58259 -0.303447 0.111646)
(1.59643 -0.364141 0.117433)
(1.58284 -0.40944 0.106558)
(1.58605 -0.426563 0.105224)
(1.61605 -0.416109 0.10442)
(1.63483 -0.36476 0.102971)
(1.65081 -0.27319 0.104373)
(1.65469 -0.143589 0.10434)
(1.62159 0.0423214 0.101676)
(1.53243 0.309558 0.0968421)
(1.35214 0.672454 0.088901)
(0.985946 1.1344 0.0784455)
(0.103183 1.65999 0.0793731)
(-1.05131 1.9666 0.141086)
(1.16002 1.80044 0.359447)
(0.714163 0.0953333 -0.00130108)
(1.48932 0.588574 0.0338912)
(1.42889 0.461243 0.0444828)
(1.45781 0.312794 0.0823571)
(1.50082 0.19394 0.0983644)
(1.51953 0.123932 0.100899)
(1.53782 0.0512004 0.10855)
(1.55249 0.000298112 0.103574)
(1.58795 -0.00921995 0.10202)
(1.65021 0.00531672 0.10241)
(1.70722 0.0516273 0.102406)
(1.76128 0.129556 0.100801)
(1.81629 0.242113 0.0960161)
(1.86541 0.417931 0.0912363)
(1.89068 0.694593 0.0835608)
(1.85515 1.11275 0.0651857)
(1.65594 1.74994 0.0339253)
(0.831047 2.73795 -0.00356772)
(-0.777479 4.1101 -0.0162386)
(-1.24365 6.75748 0.0383279)
(0.801684 0.18611 0.00930641)
(1.77392 3.88482 -0.0167466)
(1.35236 4.04621 -0.0611027)
(1.32674 3.98525 -0.0627331)
(1.39271 3.92406 -0.0515915)
(1.43978 3.88902 -0.0549299)
(1.47278 3.85379 -0.0517737)
(1.52242 3.82951 -0.0537149)
(1.59107 3.83118 -0.0543759)
(1.6769 3.84283 -0.0529159)
(1.75907 3.86824 -0.0527108)
(1.84129 3.90966 -0.0571638)
(1.94306 3.97304 -0.0639446)
(2.07408 4.08023 -0.0671981)
(2.22729 4.25707 -0.0759404)
(2.4078 4.54286 -0.103902)
(2.61492 5.04692 -0.15096)
(2.5163 6.04038 -0.229533)
(1.88964 8.19273 -0.3881)
(-1.02733 17.0857 -0.963232)
(1.73071 0.431874 0.00376777)
(5.96631 5.73051 -0.774212)
(1.93512 6.96246 -0.923834)
(1.64693 7.0374 -0.981951)
(1.72591 7.0498 -1.0163)
(1.78031 7.05731 -1.03896)
(1.81595 7.06181 -1.04963)
(1.87929 7.06412 -1.05457)
(1.96699 7.07098 -1.05562)
(2.07264 7.07665 -1.05451)
(2.17923 7.08373 -1.05569)
(2.29228 7.09506 -1.06222)
(2.44065 7.11417 -1.06687)
(2.64037 7.14886 -1.06691)
(2.8909 7.20675 -1.08194)
(3.25013 7.30383 -1.11653)
(3.88296 7.5002 -1.15714)
(4.97209 7.99206 -1.26169)
(9.13881 9.64824 -1.59821)
(26.2243 17.0817 -3.74783)
(0.800348 -0.130585 -0.0461959)
(1.86117 -0.552009 -0.0795086)
(1.61918 -0.556678 -0.0466006)
(1.64214 -0.541328 -0.0424005)
(1.64565 -0.527453 -0.0407548)
(1.65903 -0.526454 -0.0360571)
(1.65423 -0.523778 -0.0287406)
(1.61735 -0.515345 -0.0298324)
(1.56006 -0.505554 -0.0280884)
(1.49344 -0.500532 -0.0186893)
(1.39148 -0.505516 -0.0165156)
(1.2487 -0.507783 -0.0242383)
(1.10973 -0.49703 -0.0312817)
(0.999576 -0.480367 -0.0314981)
(0.894797 -0.469516 -0.0283009)
(0.768367 -0.469362 -0.0276097)
(0.62844 -0.477878 -0.030523)
(0.502566 -0.493447 -0.0308591)
(0.470618 -0.556932 -0.0199808)
(1.22471 -0.818161 0.000971448)
(0.792785 -0.235528 -0.0357516)
(1.68802 -0.731269 -0.0419228)
(1.41685 -0.716854 -0.0153901)
(1.4081 -0.687572 -0.0128852)
(1.39686 -0.672356 -0.0072163)
(1.3986 -0.667496 -0.00692603)
(1.40082 -0.663428 -0.00216831)
(1.37578 -0.652422 0.00861927)
(1.32472 -0.637143 0.0129641)
(1.25626 -0.632888 0.00954609)
(1.16436 -0.63801 0.00582199)
(1.0575 -0.625597 0.00510058)
(0.956521 -0.588951 0.00499895)
(0.863949 -0.549884 0.00463404)
(0.761925 -0.527599 0.00406926)
(0.639318 -0.525083 0.00216782)
(0.50926 -0.536559 0.001169)
(0.374609 -0.563634 0.00913048)
(0.324407 -0.676866 0.0363358)
(1.45484 -1.05861 0.0945707)
(0.787111 -0.16763 -0.0301855)
(1.69789 -0.601606 -0.0141727)
(1.45866 -0.621222 0.0175784)
(1.42686 -0.606626 0.0192281)
(1.40421 -0.605114 0.0204887)
(1.40441 -0.60095 0.0240978)
(1.40654 -0.60217 0.032413)
(1.38673 -0.604587 0.0424545)
(1.33179 -0.596195 0.0454871)
(1.25536 -0.586146 0.0404309)
(1.17775 -0.573249 0.037812)
(1.09942 -0.53691 0.0398833)
(1.00917 -0.478242 0.0401238)
(0.902156 -0.421222 0.0374652)
(0.777459 -0.382769 0.0345359)
(0.637318 -0.364156 0.0328799)
(0.490639 -0.363605 0.0367398)
(0.305795 -0.397222 0.0536187)
(0.206872 -0.554897 0.0966145)
(1.98673 -0.983079 0.191006)
(0.777893 -0.115871 -0.0272667)
(1.67093 -0.46646 0.00647508)
(1.45909 -0.525169 0.036213)
(1.42436 -0.536081 0.0339972)
(1.40228 -0.547498 0.03731)
(1.4015 -0.545537 0.0406923)
(1.39718 -0.547444 0.0418955)
(1.38175 -0.560809 0.047318)
(1.34316 -0.56392 0.0536486)
(1.2792 -0.54504 0.0494671)
(1.21359 -0.513334 0.0451134)
(1.1525 -0.464518 0.047048)
(1.07221 -0.395799 0.04804)
(0.959421 -0.318984 0.0450358)
(0.818979 -0.248314 0.0406597)
(0.658425 -0.192688 0.0388963)
(0.47671 -0.165132 0.0452442)
(0.207196 -0.200215 0.0662566)
(0.0368174 -0.400199 0.119819)
(2.49928 -0.877217 0.255519)
(0.763951 -0.0771857 -0.0270937)
(1.615 -0.372944 0.0172088)
(1.43491 -0.450257 0.0444367)
(1.40443 -0.466852 0.0409218)
(1.39446 -0.493567 0.0525551)
(1.40442 -0.500943 0.0641561)
(1.39127 -0.504996 0.0654002)
(1.37026 -0.522118 0.0647655)
(1.34756 -0.537319 0.0693286)
(1.30594 -0.5245 0.0645654)
(1.25827 -0.486384 0.0595953)
(1.21695 -0.426002 0.0621945)
(1.15471 -0.341696 0.0643183)
(1.04964 -0.236599 0.0613788)
(0.903743 -0.119539 0.0556231)
(0.72044 -0.00409622 0.0522129)
(0.4836 0.0822546 0.0551606)
(0.0944297 0.0868309 0.0739948)
(-0.190748 -0.120497 0.143665)
(2.85237 -0.681151 0.336418)
(0.746873 -0.0385034 -0.0316134)
(1.54553 -0.263564 0.022642)
(1.41083 -0.355794 0.0598544)
(1.38091 -0.375254 0.056962)
(1.36789 -0.407985 0.0636956)
(1.39002 -0.445598 0.0763993)
(1.376 -0.47322 0.0799752)
(1.34943 -0.500923 0.0747962)
(1.34078 -0.524928 0.0751767)
(1.33014 -0.518786 0.0707084)
(1.31209 -0.476085 0.0680709)
(1.29719 -0.404651 0.0715674)
(1.26161 -0.306031 0.0727139)
(1.18158 -0.172507 0.0684876)
(1.05147 -0.000630089 0.0613065)
(0.86016 0.199509 0.0551529)
(0.568126 0.398531 0.05146)
(0.0281135 0.533518 0.0672914)
(-0.484979 0.40314 0.152695)
(2.86082 -0.274249 0.387077)
(0.730805 0.0241298 -0.0358678)
(1.46837 -0.0738542 0.0382998)
(1.36899 -0.214219 0.0788384)
(1.3521 -0.290381 0.0933764)
(1.32382 -0.326011 0.0960164)
(1.33913 -0.382475 0.0988889)
(1.33593 -0.431783 0.102485)
(1.31855 -0.465216 0.0950797)
(1.3297 -0.483371 0.09082)
(1.35479 -0.473882 0.0871721)
(1.3724 -0.427827 0.0871553)
(1.38701 -0.354109 0.0886256)
(1.38685 -0.251788 0.0848599)
(1.35504 -0.0989654 0.0778569)
(1.27575 0.122196 0.0683707)
(1.11955 0.414918 0.0544176)
(0.818148 0.777628 0.0341353)
(0.122977 1.1766 0.0302205)
(-0.818968 1.36044 0.0953131)
(2.24562 0.916412 0.325201)
(0.716506 0.0978083 -0.0490904)
(1.36023 0.335186 0.00727715)
(1.24126 0.160576 0.043318)
(1.26912 0.00994545 0.0819191)
(1.27551 -0.0706904 0.105097)
(1.2842 -0.137967 0.103656)
(1.29325 -0.201237 0.108206)
(1.29784 -0.23647 0.1031)
(1.33211 -0.243895 0.0974567)
(1.38568 -0.229791 0.0958022)
(1.43186 -0.189524 0.0967263)
(1.47323 -0.129018 0.0926927)
(1.51676 -0.0401915 0.0823845)
(1.55556 0.106914 0.0732259)
(1.56535 0.335894 0.0582447)
(1.51558 0.670142 0.0248119)
(1.33061 1.17439 -0.0309946)
(0.636547 1.93746 -0.092955)
(-0.754461 2.90687 -0.121634)
(0.502168 4.21624 -0.0345388)
(0.775234 0.169365 -0.0560578)
(1.48015 2.66048 -0.106434)
(1.09771 2.68449 -0.0949464)
(1.12183 2.56248 -0.0747795)
(1.17574 2.47429 -0.0461269)
(1.20855 2.42726 -0.0408193)
(1.23743 2.38397 -0.0322231)
(1.27589 2.36439 -0.0320755)
(1.33638 2.36638 -0.0349908)
(1.40916 2.37659 -0.0340103)
(1.47318 2.39712 -0.0340519)
(1.53634 2.42878 -0.0432729)
(1.62278 2.48283 -0.0555598)
(1.73112 2.57679 -0.0626149)
(1.83899 2.72143 -0.0844134)
(1.95817 2.95316 -0.139982)
(2.08737 3.375 -0.224713)
(1.8893 4.16994 -0.351709)
(0.96707 5.76026 -0.566771)
(-0.380391 11.4317 -1.11059)
(1.47678 0.430305 -0.0665364)
(4.15273 5.03693 -0.790671)
(1.40003 5.89113 -0.850931)
(1.25889 5.89737 -0.878836)
(1.35151 5.86763 -0.896016)
(1.41472 5.85861 -0.910268)
(1.45794 5.85046 -0.916861)
(1.51704 5.85027 -0.922728)
(1.59296 5.85563 -0.926016)
(1.67841 5.85967 -0.925069)
(1.75853 5.86424 -0.928207)
(1.84727 5.87256 -0.939867)
(1.97268 5.89101 -0.948646)
(2.12601 5.92231 -0.955854)
(2.30089 5.96571 -0.991188)
(2.57073 6.04411 -1.05761)
(3.02279 6.21669 -1.15271)
(3.63209 6.6043 -1.33276)
(5.92281 7.79888 -1.76886)
(17.035 12.9212 -3.70934)
(0.803201 -0.126853 -0.0194196)
(1.87768 -0.538182 -0.0511065)
(1.62783 -0.537504 -0.0425375)
(1.64797 -0.520384 -0.0392692)
(1.65144 -0.511899 -0.0343137)
(1.65981 -0.509658 -0.0318686)
(1.65366 -0.501525 -0.033604)
(1.62077 -0.489855 -0.0306688)
(1.5632 -0.480845 -0.0252976)
(1.49413 -0.477324 -0.0226032)
(1.39053 -0.482484 -0.0234957)
(1.24701 -0.484508 -0.026541)
(1.10834 -0.474094 -0.0293887)
(0.99898 -0.457945 -0.0305142)
(0.894239 -0.447403 -0.0303531)
(0.76757 -0.447591 -0.0310887)
(0.630395 -0.455734 -0.0324818)
(0.510002 -0.468784 -0.0293908)
(0.479232 -0.526326 -0.018239)
(1.21026 -0.773333 -0.00404835)
(0.79283 -0.230557 -0.0147349)
(1.69738 -0.71125 -0.039585)
(1.42901 -0.694454 -0.029336)
(1.40988 -0.665433 -0.0253245)
(1.39823 -0.653315 -0.0256019)
(1.40489 -0.646233 -0.020436)
(1.40765 -0.637403 -0.0133229)
(1.38073 -0.622594 -0.00702832)
(1.32545 -0.609116 -0.00522264)
(1.25542 -0.60795 -0.00611157)
(1.16362 -0.613374 -0.0072325)
(1.056 -0.600098 -0.00916692)
(0.954638 -0.563719 -0.0117511)
(0.862754 -0.525635 -0.013167)
(0.760908 -0.504025 -0.0131624)
(0.638669 -0.501027 -0.0135362)
(0.513267 -0.509764 -0.013327)
(0.386945 -0.531976 -0.00830278)
(0.336097 -0.638396 0.00589185)
(1.41619 -1.00865 0.0231003)
(0.7887 -0.164725 -0.0133828)
(1.71044 -0.580326 -0.0302398)
(1.46775 -0.603533 -0.0219226)
(1.42851 -0.591299 -0.0187797)
(1.40823 -0.586596 -0.0175922)
(1.41206 -0.584569 -0.0115858)
(1.41463 -0.589029 -0.00389567)
(1.39162 -0.590306 0.00261106)
(1.32955 -0.583238 0.0013657)
(1.25254 -0.576188 -0.00224764)
(1.17751 -0.563876 -0.00301465)
(1.0986 -0.526327 -0.0036737)
(1.00676 -0.467227 -0.00631115)
(0.899995 -0.411048 -0.00880634)
(0.776798 -0.373746 -0.00974489)
(0.639873 -0.354279 -0.0085447)
(0.499879 -0.350394 -0.00291423)
(0.323002 -0.379995 0.0080564)
(0.219106 -0.532651 0.0253029)
(1.91385 -0.94657 0.0468434)
(0.779564 -0.11474 -0.0123982)
(1.68156 -0.456457 -0.0266313)
(1.46539 -0.518705 -0.0210052)
(1.42717 -0.530491 -0.0182758)
(1.40476 -0.531654 -0.0188303)
(1.40242 -0.533973 -0.0182335)
(1.40191 -0.540236 -0.014189)
(1.38652 -0.553896 -0.00779691)
(1.33956 -0.558203 -0.0100744)
(1.27478 -0.54137 -0.0155213)
(1.21348 -0.509953 -0.0164636)
(1.15265 -0.45986 -0.0159707)
(1.06992 -0.390466 -0.0180343)
(0.956234 -0.314459 -0.0212613)
(0.817665 -0.245508 -0.0236145)
(0.661968 -0.190434 -0.0220018)
(0.488058 -0.163475 -0.0147592)
(0.227795 -0.197905 -0.00273549)
(0.0564604 -0.388948 0.0179403)
(2.4178 -0.842256 0.0533656)
(0.765277 -0.0781499 -0.0125734)
(1.62325 -0.362805 -0.0312482)
(1.43981 -0.439318 -0.025347)
(1.41569 -0.46511 -0.0166804)
(1.40451 -0.478443 -0.00941757)
(1.40344 -0.48843 -0.0089668)
(1.3947 -0.493605 -0.00518681)
(1.37365 -0.511943 -0.000140702)
(1.34208 -0.529193 -0.00496506)
(1.30079 -0.516907 -0.0118619)
(1.25902 -0.47761 -0.0120745)
(1.21808 -0.416292 -0.0102291)
(1.15216 -0.332691 -0.0122798)
(1.04495 -0.229375 -0.0171055)
(0.900811 -0.114731 -0.0219139)
(0.721849 -0.00212694 -0.0220028)
(0.492889 0.0784001 -0.0180753)
(0.12049 0.0804051 -0.00809575)
(-0.15663 -0.116116 0.0226799)
(2.74499 -0.65374 0.0785923)
(0.750435 -0.042017 -0.0129554)
(1.56272 -0.240662 -0.0323487)
(1.40899 -0.329336 -0.0203864)
(1.38813 -0.360137 -0.0184029)
(1.38119 -0.3904 -0.00733517)
(1.38722 -0.430871 -0.00708399)
(1.37839 -0.458736 -0.00300885)
(1.35093 -0.48917 -0.000256577)
(1.3346 -0.515251 -0.00743563)
(1.32637 -0.507659 -0.0137579)
(1.31409 -0.463031 -0.0119714)
(1.29757 -0.392781 -0.00999811)
(1.25683 -0.297551 -0.014289)
(1.17419 -0.166594 -0.0216303)
(1.0449 0.00234179 -0.0288503)
(0.855045 0.195638 -0.0325098)
(0.571073 0.381287 -0.0356995)
(0.0562143 0.504016 -0.0291793)
(-0.440925 0.367158 0.00808865)
(2.75829 -0.296233 0.0774057)
(0.740789 0.0069072 -0.0109608)
(1.50636 -0.0721604 -0.0316572)
(1.36633 -0.192417 -0.0139759)
(1.35472 -0.254345 -0.0165947)
(1.33353 -0.29519 -0.00800967)
(1.33506 -0.353627 -0.00582495)
(1.3364 -0.403611 -0.00148795)
(1.31713 -0.441567 -0.00157666)
(1.32359 -0.461965 -0.00948435)
(1.35301 -0.450375 -0.0130369)
(1.3739 -0.403706 -0.00959077)
(1.38356 -0.334363 -0.0106377)
(1.37835 -0.237017 -0.0195523)
(1.34484 -0.0858771 -0.028699)
(1.26303 0.130668 -0.0377506)
(1.10075 0.408028 -0.0488636)
(0.801796 0.74363 -0.0664966)
(0.129545 1.10656 -0.0763044)
(-0.778605 1.24834 -0.0549022)
(2.21061 0.793592 0.0286315)
(0.735331 0.0666678 -0.0176683)
(1.44356 0.256353 -0.0320978)
(1.2739 0.122478 0.00614866)
(1.28558 0.00312182 0.0146008)
(1.28168 -0.0707727 0.0170406)
(1.27876 -0.127133 0.0167901)
(1.29045 -0.183195 0.0163098)
(1.29257 -0.218375 0.0102286)
(1.32579 -0.225022 0.00103334)
(1.38463 -0.20819 -0.000333724)
(1.4301 -0.169336 0.00199725)
(1.46425 -0.114606 -0.0051447)
(1.50532 -0.0286359 -0.0183372)
(1.54188 0.118912 -0.0270908)
(1.5388 0.338861 -0.0410249)
(1.468 0.648301 -0.0695543)
(1.27038 1.11883 -0.113198)
(0.585658 1.82559 -0.159599)
(-0.748378 2.7003 -0.181501)
(0.630415 3.86077 -0.113249)
(0.787469 0.150528 -0.0396844)
(1.56514 2.54178 -0.108815)
(1.16663 2.59102 -0.0575428)
(1.16258 2.47853 -0.0367725)
(1.20314 2.38959 -0.0177309)
(1.22261 2.3496 -0.00437811)
(1.24515 2.30991 0.00210433)
(1.27531 2.28968 -0.000310374)
(1.33377 2.29395 -0.00495781)
(1.4087 2.30618 -0.00363486)
(1.46748 2.32394 -0.00450343)
(1.52426 2.35291 -0.0167027)
(1.61186 2.40902 -0.0294464)
(1.71234 2.50208 -0.0367685)
(1.79243 2.6357 -0.0616614)
(1.88083 2.85303 -0.11037)
(1.98088 3.25192 -0.172471)
(1.74335 3.99686 -0.269331)
(0.812941 5.4672 -0.380583)
(-0.0827327 10.801 -0.452789)
(1.47577 0.421954 -0.0574954)
(4.20946 4.82727 -0.221167)
(1.47854 5.66352 -0.157491)
(1.28856 5.66095 -0.129601)
(1.36623 5.61873 -0.108059)
(1.42088 5.60418 -0.0982537)
(1.45813 5.59103 -0.0976598)
(1.51273 5.58686 -0.103071)
(1.59056 5.59258 -0.106364)
(1.67627 5.59696 -0.105576)
(1.74998 5.5996 -0.110898)
(1.83589 5.60804 -0.124258)
(1.96049 5.6293 -0.134243)
(2.09567 5.65854 -0.148404)
(2.23932 5.69592 -0.185523)
(2.47005 5.77393 -0.236639)
(2.86465 5.9378 -0.328306)
(3.36687 6.30124 -0.471898)
(5.48244 7.41471 -0.678205)
(16.8419 12.196 -1.07871)
(0.804345 -0.12624 -0.0103334)
(1.88389 -0.535207 -0.0329206)
(1.63089 -0.534964 -0.0308216)
(1.65035 -0.518012 -0.0300768)
(1.65305 -0.509418 -0.0293407)
(1.65974 -0.504724 -0.0303261)
(1.65543 -0.491856 -0.0299239)
(1.62565 -0.478875 -0.0257956)
(1.56812 -0.472309 -0.0202833)
(1.49524 -0.471038 -0.0180524)
(1.38754 -0.476462 -0.0205227)
(1.24281 -0.477984 -0.0251019)
(1.10575 -0.467455 -0.0285999)
(0.998612 -0.45135 -0.0294019)
(0.894222 -0.440654 -0.0282291)
(0.766234 -0.440209 -0.0276855)
(0.63009 -0.447078 -0.0284158)
(0.516298 -0.459688 -0.02742)
(0.491622 -0.516347 -0.0194795)
(1.22434 -0.762933 -0.00830654)
(0.794061 -0.229839 -0.00953449)
(1.70264 -0.707936 -0.0264945)
(1.43103 -0.692064 -0.0254676)
(1.41182 -0.662489 -0.0249653)
(1.40174 -0.650284 -0.0225654)
(1.41088 -0.64148 -0.0184674)
(1.41423 -0.628262 -0.0127249)
(1.38388 -0.613219 -0.00918403)
(1.32564 -0.603703 -0.00837378)
(1.25425 -0.605328 -0.00910034)
(1.1613 -0.610466 -0.0110964)
(1.05298 -0.596151 -0.0142363)
(0.952521 -0.559746 -0.0172025)
(0.862538 -0.522228 -0.0181136)
(0.761555 -0.501017 -0.017265)
(0.63915 -0.496683 -0.0162718)
(0.514453 -0.501362 -0.0143345)
(0.393309 -0.520086 -0.0109094)
(0.345647 -0.625128 -0.00270718)
(1.41262 -0.996798 0.00533066)
(0.790133 -0.164599 -0.00983949)
(1.71586 -0.578973 -0.0260903)
(1.47004 -0.603267 -0.0241699)
(1.43118 -0.59015 -0.024105)
(1.4114 -0.588962 -0.0219912)
(1.41811 -0.589376 -0.0177885)
(1.42074 -0.593666 -0.0120266)
(1.39199 -0.595984 -0.0105774)
(1.32693 -0.591676 -0.0126019)
(1.25098 -0.586185 -0.0142078)
(1.17632 -0.573109 -0.0152248)
(1.09612 -0.534343 -0.0176009)
(1.00404 -0.475154 -0.0208742)
(0.898722 -0.419945 -0.0225921)
(0.777721 -0.38385 -0.0224301)
(0.644144 -0.363252 -0.0197848)
(0.507177 -0.355675 -0.0125252)
(0.333193 -0.382331 -0.0038473)
(0.22772 -0.53338 0.00512285)
(1.90165 -0.945197 0.0115916)
(0.781125 -0.114365 -0.00925351)
(1.68685 -0.458041 -0.0227802)
(1.46737 -0.519335 -0.0218048)
(1.42653 -0.524951 -0.0262216)
(1.40232 -0.530346 -0.0298902)
(1.40614 -0.53395 -0.02739)
(1.40761 -0.539768 -0.0212923)
(1.38587 -0.554594 -0.0201778)
(1.33543 -0.561284 -0.0236853)
(1.27281 -0.545687 -0.0262633)
(1.21314 -0.513427 -0.0267607)
(1.15093 -0.462107 -0.028246)
(1.06692 -0.392801 -0.0315284)
(0.95384 -0.318317 -0.0344393)
(0.818238 -0.251517 -0.0360945)
(0.667274 -0.197181 -0.0333419)
(0.495891 -0.171336 -0.0246982)
(0.238764 -0.207453 -0.0163288)
(0.0699044 -0.39381 -0.00652609)
(2.41661 -0.839027 0.00544615)
(0.765829 -0.0770463 -0.00839967)
(1.62711 -0.369277 -0.0208262)
(1.44941 -0.440447 -0.0169676)
(1.42035 -0.458022 -0.0154198)
(1.40218 -0.47317 -0.0194603)
(1.40865 -0.480902 -0.0148645)
(1.40009 -0.484925 -0.00798639)
(1.37048 -0.505687 -0.00901881)
(1.33584 -0.525789 -0.0152833)
(1.29883 -0.513846 -0.0186168)
(1.2599 -0.473001 -0.0177235)
(1.21675 -0.411139 -0.0179999)
(1.14783 -0.32906 -0.0218748)
(1.04 -0.228077 -0.0269245)
(0.898845 -0.115884 -0.0314733)
(0.724271 -0.0057148 -0.0310256)
(0.497398 0.0701958 -0.0257279)
(0.13374 0.0692244 -0.0202816)
(-0.135283 -0.121423 -0.0057072)
(2.73736 -0.650911 0.0131074)
(0.748769 -0.0361943 -0.00915799)
(1.56375 -0.254557 -0.020867)
(1.42471 -0.335193 -0.0158669)
(1.39396 -0.366173 -0.0106132)
(1.37921 -0.397637 -0.0140679)
(1.39435 -0.433526 -0.00756326)
(1.38282 -0.460592 -0.00124379)
(1.345 -0.493431 -0.00564372)
(1.32728 -0.520519 -0.0146081)
(1.3256 -0.511032 -0.0175031)
(1.31585 -0.464673 -0.0147296)
(1.29488 -0.396131 -0.0152693)
(1.24998 -0.304375 -0.0217403)
(1.16701 -0.175172 -0.029121)
(1.04059 -0.00753831 -0.035332)
(0.853301 0.181576 -0.0375532)
(0.571324 0.35903 -0.03713)
(0.0701433 0.474188 -0.0338337)
(-0.413427 0.33454 -0.0158985)
(2.76222 -0.317884 0.00920326)
(0.730935 0.0201117 -0.00759242)
(1.48698 -0.0639287 -0.0326751)
(1.38398 -0.178109 -0.0296416)
(1.35806 -0.248021 -0.0240372)
(1.33459 -0.292333 -0.0229833)
(1.34565 -0.349308 -0.0122779)
(1.34018 -0.403172 -0.00639984)
(1.31055 -0.445439 -0.0124522)
(1.31824 -0.46561 -0.0206413)
(1.35468 -0.451167 -0.0204284)
(1.3748 -0.404567 -0.0162948)
(1.37705 -0.339964 -0.0201432)
(1.36879 -0.246545 -0.0308827)
(1.33684 -0.0951343 -0.0389851)
(1.25558 0.119313 -0.045919)
(1.09079 0.387165 -0.0546665)
(0.790551 0.709415 -0.0648368)
(0.132496 1.05544 -0.0704076)
(-0.744964 1.18031 -0.0555979)
(2.26485 0.733201 -0.0146668)
(0.723197 0.0697509 0.00100233)
(1.4192 0.268574 -0.0130578)
(1.28788 0.128003 -0.0113457)
(1.28 0.000649779 -0.00802127)
(1.2777 -0.0695658 -0.0078146)
(1.28347 -0.125681 -8.15965e-05)
(1.28669 -0.186807 -0.000513041)
(1.28256 -0.224366 -0.0108455)
(1.32155 -0.228531 -0.0183886)
(1.38664 -0.209551 -0.015947)
(1.42705 -0.173599 -0.0135898)
(1.4529 -0.124245 -0.023316)
(1.49481 -0.0392481 -0.0368809)
(1.53287 0.109682 -0.0433156)
(1.52288 0.32282 -0.0551374)
(1.44339 0.619473 -0.0796423)
(1.24038 1.07926 -0.104796)
(0.565819 1.7553 -0.121754)
(-0.719662 2.59259 -0.114965)
(0.773776 3.747 -0.0708503)
(0.778523 0.132685 0.00480581)
(1.54186 2.50482 -0.00688581)
(1.16967 2.54541 -0.0162062)
(1.16164 2.43867 -0.0156466)
(1.20813 2.36624 -0.010217)
(1.22839 2.32774 -0.00345564)
(1.24149 2.28543 -0.00587767)
(1.26883 2.26736 -0.0142482)
(1.33305 2.27576 -0.0175529)
(1.40961 2.28801 -0.0140364)
(1.46011 2.30172 -0.0157822)
(1.5114 2.32925 -0.0292505)
(1.60272 2.38806 -0.0408036)
(1.69891 2.47883 -0.0471124)
(1.76538 2.60607 -0.0713069)
(1.84734 2.8232 -0.10912)
(1.92817 3.21132 -0.136764)
(1.67813 3.93151 -0.179119)
(0.821898 5.36973 -0.20657)
(0.184885 10.6642 -0.164588)
(1.46868 0.408191 -0.00547381)
(4.1895 4.78138 -0.0539478)
(1.49146 5.61571 -0.055684)
(1.30831 5.62255 -0.0444309)
(1.38285 5.59152 -0.02859)
(1.42512 5.57646 -0.0216794)
(1.45313 5.56122 -0.0258785)
(1.50833 5.55848 -0.0323383)
(1.59045 5.56605 -0.0332739)
(1.67387 5.56931 -0.0318084)
(1.73985 5.56959 -0.0382627)
(1.82393 5.579 -0.0515327)
(1.94854 5.60257 -0.061099)
(2.07473 5.62839 -0.078065)
(2.21265 5.66417 -0.112479)
(2.4279 5.74915 -0.146534)
(2.78699 5.90357 -0.192905)
(3.27571 6.2612 -0.252825)
(5.45609 7.36553 -0.296929)
(17.1544 12.0938 -0.30019)
(0.803843 -0.126566 -0.0053688)
(1.88194 -0.536317 -0.0187417)
(1.63066 -0.536461 -0.020326)
(1.64945 -0.519487 -0.0221473)
(1.65119 -0.508886 -0.0253144)
(1.65922 -0.500788 -0.0276671)
(1.65819 -0.48623 -0.0265105)
(1.63041 -0.47448 -0.0222193)
(1.57094 -0.470018 -0.0186673)
(1.49389 -0.469592 -0.0189836)
(1.38348 -0.474654 -0.0224338)
(1.23894 -0.475832 -0.0263694)
(1.10404 -0.465446 -0.0288936)
(0.99935 -0.449578 -0.0290832)
(0.895955 -0.4392 -0.027457)
(0.767383 -0.438751 -0.0260053)
(0.63066 -0.443862 -0.0253262)
(0.518925 -0.453835 -0.0240061)
(0.49979 -0.509514 -0.0183869)
(1.24169 -0.75756 -0.0092635)
(0.793581 -0.230585 -0.00557681)
(1.70066 -0.709505 -0.0185599)
(1.43053 -0.69263 -0.0196698)
(1.41278 -0.664201 -0.0193993)
(1.40473 -0.650596 -0.0186789)
(1.41473 -0.638482 -0.0170742)
(1.41693 -0.62423 -0.0152788)
(1.38508 -0.611444 -0.0138222)
(1.32553 -0.604627 -0.0132041)
(1.2527 -0.606943 -0.0140341)
(1.15848 -0.611307 -0.0162982)
(1.04989 -0.596555 -0.0193514)
(0.950761 -0.560506 -0.0218308)
(0.862692 -0.523466 -0.0220921)
(0.762749 -0.502681 -0.0207063)
(0.6416 -0.497494 -0.0192793)
(0.518629 -0.498359 -0.016636)
(0.398559 -0.51274 -0.0122911)
(0.351215 -0.616908 -0.0062854)
(1.41579 -0.990899 -0.000763455)
(0.789889 -0.164422 -0.00675381)
(1.71594 -0.576603 -0.0198357)
(1.46973 -0.6 -0.0198569)
(1.43069 -0.592732 -0.0203864)
(1.41455 -0.594108 -0.0196957)
(1.42202 -0.593681 -0.018035)
(1.42184 -0.597786 -0.0172541)
(1.39104 -0.60149 -0.0173733)
(1.32592 -0.598739 -0.0176559)
(1.24992 -0.593541 -0.0183128)
(1.17412 -0.57973 -0.0201439)
(1.09295 -0.540526 -0.0234057)
(1.00177 -0.481742 -0.0265734)
(0.898439 -0.427563 -0.0274898)
(0.779605 -0.392765 -0.0267283)
(0.649777 -0.371539 -0.0242528)
(0.515815 -0.360949 -0.0174205)
(0.340629 -0.385617 -0.00834866)
(0.232235 -0.536744 -0.00100119)
(1.90046 -0.947694 0.00336097)
(0.781264 -0.113278 -0.00471174)
(1.68766 -0.451221 -0.0128241)
(1.46195 -0.511689 -0.017185)
(1.41908 -0.522045 -0.0245878)
(1.40359 -0.529375 -0.025846)
(1.41102 -0.531302 -0.0229515)
(1.40912 -0.536449 -0.0210364)
(1.38412 -0.552592 -0.0213578)
(1.33348 -0.561139 -0.0227904)
(1.27171 -0.546032 -0.024184)
(1.21149 -0.512706 -0.025729)
(1.14788 -0.460513 -0.028542)
(1.06372 -0.39172 -0.0319406)
(0.951667 -0.319045 -0.0340451)
(0.818763 -0.254805 -0.0353486)
(0.673364 -0.201929 -0.0337786)
(0.50507 -0.176933 -0.02642)
(0.245938 -0.214608 -0.0178519)
(0.0767913 -0.400126 -0.0105675)
(2.42672 -0.84219 -0.00292229)
(0.766771 -0.0780323 -0.00192182)
(1.63161 -0.360927 -0.00390445)
(1.44521 -0.433579 -0.00867627)
(1.4132 -0.449754 -0.0165414)
(1.40507 -0.462886 -0.016297)
(1.41491 -0.46887 -0.0111148)
(1.40055 -0.473824 -0.00903779)
(1.36635 -0.497676 -0.0114101)
(1.33248 -0.520383 -0.0151147)
(1.29835 -0.508414 -0.016837)
(1.25964 -0.465846 -0.016772)
(1.21393 -0.403582 -0.0183603)
(1.14323 -0.323171 -0.0223328)
(1.03535 -0.224324 -0.026252)
(0.89671 -0.114236 -0.0298787)
(0.727595 -0.00660606 -0.0304944)
(0.503631 0.065699 -0.0262129)
(0.140472 0.0626177 -0.0207249)
(-0.126122 -0.125853 -0.0125516)
(2.7472 -0.651483 -0.00284256)
(0.752673 -0.0411878 -0.00310892)
(1.57447 -0.252543 0.000193806)
(1.41923 -0.342205 -0.00562126)
(1.38993 -0.369005 -0.0114103)
(1.38424 -0.394184 -0.00904188)
(1.40005 -0.428548 -0.00349653)
(1.38031 -0.457413 -0.00327627)
(1.33756 -0.492868 -0.00917915)
(1.32274 -0.520873 -0.0154864)
(1.32625 -0.509735 -0.0167315)
(1.31633 -0.461866 -0.0146806)
(1.29056 -0.395189 -0.0164989)
(1.24298 -0.306824 -0.0230693)
(1.1606 -0.178919 -0.0287458)
(1.03647 -0.0123684 -0.0324669)
(0.853247 0.171733 -0.033917)
(0.57479 0.341912 -0.0325353)
(0.0773987 0.453611 -0.0286811)
(-0.400277 0.316908 -0.0197549)
(2.77845 -0.325496 -0.00649967)
(0.737549 0.0170895 -0.00950147)
(1.49961 -0.0643494 -0.011941)
(1.37497 -0.188045 -0.020055)
(1.36138 -0.251956 -0.0214605)
(1.34529 -0.28915 -0.0137276)
(1.35164 -0.346361 -0.00762462)
(1.33622 -0.403097 -0.00923922)
(1.30289 -0.446985 -0.0168783)
(1.31561 -0.465962 -0.0227731)
(1.35736 -0.449036 -0.021353)
(1.37418 -0.402783 -0.0180007)
(1.36898 -0.342626 -0.0230132)
(1.3595 -0.252375 -0.0335876)
(1.32981 -0.100288 -0.0388068)
(1.24735 0.110646 -0.0406767)
(1.08183 0.365722 -0.0456006)
(0.786052 0.675745 -0.0512226)
(0.138728 1.01841 -0.0514775)
(-0.721437 1.14898 -0.0402808)
(2.30363 0.712213 -0.0156638)
(0.729996 0.0790872 -0.013529)
(1.42917 0.282365 -0.0207639)
(1.27893 0.136062 -0.0260233)
(1.28911 0.0116255 -0.0216415)
(1.28962 -0.0579021 -0.0107505)
(1.28606 -0.118208 -0.00602569)
(1.27968 -0.182571 -0.0103685)
(1.2747 -0.220069 -0.0193181)
(1.32069 -0.221831 -0.0237663)
(1.38943 -0.201695 -0.0202356)
(1.42274 -0.168722 -0.0184794)
(1.44096 -0.123611 -0.028714)
(1.48532 -0.0384545 -0.041056)
(1.52362 0.110887 -0.0428768)
(1.50247 0.313575 -0.046941)
(1.41834 0.593949 -0.0644245)
(1.22827 1.04701 -0.0805779)
(0.575422 1.71698 -0.0824601)
(-0.686856 2.54943 -0.0664025)
(0.848352 3.7105 -0.0354742)
(0.780375 0.14434 -0.00700034)
(1.5344 2.50993 -0.0113192)
(1.15787 2.55616 -0.0168937)
(1.16857 2.44987 -0.0115293)
(1.21533 2.37409 -0.00376107)
(1.22695 2.33219 -0.00290232)
(1.23436 2.28939 -0.0087268)
(1.26363 2.27405 -0.0160249)
(1.33398 2.28507 -0.017642)
(1.41047 2.2961 -0.0139973)